LAMMPS (23 Jun 2022)
Processor partition = 6
# LAMMPS input file to run a MLMD simulation for MLACS
#####################################
#           General parameters
#####################################
units        metal
boundary     p p p
atom_style atomic
atom_modify  map array sort 0 0.0
neigh_modify every 2 delay 10 check yes page 1000000 one 100000

read_data    atoms-0.data
Reading data file ...
  orthogonal box = (0 0 0) to (10.83 10.83 10.83)
  1 by 1 by 1 MPI processor grid
  reading atoms ...
  107 atoms
  read_data CPU = 0.003 seconds
mass      1  63.546
#####################################



#####################################
#           Interactions
#####################################
pair_style     mliap  model linear /Users/oliviernadeau/Software/otf_mlacs/examples/MLIP.model  descriptor sna /Users/oliviernadeau/Software/otf_mlacs/examples/MLIP.descriptor
SNAP keyword rcutfac 4.2 
SNAP keyword twojmax 4 
SNAP keyword rfac0 0.99363 
SNAP keyword rmin0 0.0 
SNAP keyword chemflag 0 
SNAP keyword bnormflag 0 
SNAP keyword switchflag 1 
SNAP keyword bzeroflag 1 
SNAP keyword wselfallflag 0 
SNAP keyword nelems 1 
SNAP keyword elems       Cu 
SNAP keyword radelems    0.5 
SNAP keyword welems      1.0 
pair_coeff    * * Cu
#####################################



#####################################
# Compute relevant field for NEB simulation
#####################################
timestep    0.010180505671156723
thermo      1
fix         neb all neb 1.0 parallel ideal
run 100
WARNING: No fixes with time integration, atoms won't move (src/verlet.cpp:60)
Neighbor list info ...
  update every 2 steps, delay 10 steps, check yes
  max neighbors/atom: 100000, page size: 1000000
  master list distance cutoff = 6.2
  ghost atom cutoff = 6.2
  binsize = 3.1, bins = 4 4 4
  1 neighbor lists, perpetual/occasional/extra = 1 0 0
  (1) pair mliap, perpetual
      attributes: full, newton on
      pair build: full/bin/atomonly
      stencil: full/bin/3d
      bin: standard
Per MPI rank memory allocation (min/avg/max) = 12.14 | 12.14 | 12.14 Mbytes
   Step          Temp          E_pair         E_mol          TotEng         Press     
         0   0              0.67680419     0              0.67680419     177314.22    
         1   0              0.67680419     0              0.67680419     177314.22    
         2   0              0.67680419     0              0.67680419     177314.22    
         3   0              0.67680419     0              0.67680419     177314.22    
         4   0              0.67680419     0              0.67680419     177314.22    
         5   0              0.67680419     0              0.67680419     177314.22    
         6   0              0.67680419     0              0.67680419     177314.22    
         7   0              0.67680419     0              0.67680419     177314.22    
         8   0              0.67680419     0              0.67680419     177314.22    
         9   0              0.67680419     0              0.67680419     177314.22    
        10   0              0.67680419     0              0.67680419     177314.22    
        11   0              0.67680419     0              0.67680419     177314.22    
        12   0              0.67680419     0              0.67680419     177314.22    
        13   0              0.67680419     0              0.67680419     177314.22    
        14   0              0.67680419     0              0.67680419     177314.22    
        15   0              0.67680419     0              0.67680419     177314.22    
        16   0              0.67680419     0              0.67680419     177314.22    
        17   0              0.67680419     0              0.67680419     177314.22    
        18   0              0.67680419     0              0.67680419     177314.22    
        19   0              0.67680419     0              0.67680419     177314.22    
        20   0              0.67680419     0              0.67680419     177314.22    
        21   0              0.67680419     0              0.67680419     177314.22    
        22   0              0.67680419     0              0.67680419     177314.22    
        23   0              0.67680419     0              0.67680419     177314.22    
        24   0              0.67680419     0              0.67680419     177314.22    
        25   0              0.67680419     0              0.67680419     177314.22    
        26   0              0.67680419     0              0.67680419     177314.22    
        27   0              0.67680419     0              0.67680419     177314.22    
        28   0              0.67680419     0              0.67680419     177314.22    
        29   0              0.67680419     0              0.67680419     177314.22    
        30   0              0.67680419     0              0.67680419     177314.22    
        31   0              0.67680419     0              0.67680419     177314.22    
        32   0              0.67680419     0              0.67680419     177314.22    
        33   0              0.67680419     0              0.67680419     177314.22    
        34   0              0.67680419     0              0.67680419     177314.22    
        35   0              0.67680419     0              0.67680419     177314.22    
        36   0              0.67680419     0              0.67680419     177314.22    
        37   0              0.67680419     0              0.67680419     177314.22    
        38   0              0.67680419     0              0.67680419     177314.22    
        39   0              0.67680419     0              0.67680419     177314.22    
        40   0              0.67680419     0              0.67680419     177314.22    
        41   0              0.67680419     0              0.67680419     177314.22    
        42   0              0.67680419     0              0.67680419     177314.22    
        43   0              0.67680419     0              0.67680419     177314.22    
        44   0              0.67680419     0              0.67680419     177314.22    
        45   0              0.67680419     0              0.67680419     177314.22    
        46   0              0.67680419     0              0.67680419     177314.22    
        47   0              0.67680419     0              0.67680419     177314.22    
        48   0              0.67680419     0              0.67680419     177314.22    
        49   0              0.67680419     0              0.67680419     177314.22    
        50   0              0.67680419     0              0.67680419     177314.22    
        51   0              0.67680419     0              0.67680419     177314.22    
        52   0              0.67680419     0              0.67680419     177314.22    
        53   0              0.67680419     0              0.67680419     177314.22    
        54   0              0.67680419     0              0.67680419     177314.22    
        55   0              0.67680419     0              0.67680419     177314.22    
        56   0              0.67680419     0              0.67680419     177314.22    
        57   0              0.67680419     0              0.67680419     177314.22    
        58   0              0.67680419     0              0.67680419     177314.22    
        59   0              0.67680419     0              0.67680419     177314.22    
        60   0              0.67680419     0              0.67680419     177314.22    
        61   0              0.67680419     0              0.67680419     177314.22    
        62   0              0.67680419     0              0.67680419     177314.22    
        63   0              0.67680419     0              0.67680419     177314.22    
        64   0              0.67680419     0              0.67680419     177314.22    
        65   0              0.67680419     0              0.67680419     177314.22    
        66   0              0.67680419     0              0.67680419     177314.22    
        67   0              0.67680419     0              0.67680419     177314.22    
        68   0              0.67680419     0              0.67680419     177314.22    
        69   0              0.67680419     0              0.67680419     177314.22    
        70   0              0.67680419     0              0.67680419     177314.22    
        71   0              0.67680419     0              0.67680419     177314.22    
        72   0              0.67680419     0              0.67680419     177314.22    
        73   0              0.67680419     0              0.67680419     177314.22    
        74   0              0.67680419     0              0.67680419     177314.22    
        75   0              0.67680419     0              0.67680419     177314.22    
        76   0              0.67680419     0              0.67680419     177314.22    
        77   0              0.67680419     0              0.67680419     177314.22    
        78   0              0.67680419     0              0.67680419     177314.22    
        79   0              0.67680419     0              0.67680419     177314.22    
        80   0              0.67680419     0              0.67680419     177314.22    
        81   0              0.67680419     0              0.67680419     177314.22    
        82   0              0.67680419     0              0.67680419     177314.22    
        83   0              0.67680419     0              0.67680419     177314.22    
        84   0              0.67680419     0              0.67680419     177314.22    
        85   0              0.67680419     0              0.67680419     177314.22    
        86   0              0.67680419     0              0.67680419     177314.22    
        87   0              0.67680419     0              0.67680419     177314.22    
        88   0              0.67680419     0              0.67680419     177314.22    
        89   0              0.67680419     0              0.67680419     177314.22    
        90   0              0.67680419     0              0.67680419     177314.22    
        91   0              0.67680419     0              0.67680419     177314.22    
        92   0              0.67680419     0              0.67680419     177314.22    
        93   0              0.67680419     0              0.67680419     177314.22    
        94   0              0.67680419     0              0.67680419     177314.22    
        95   0              0.67680419     0              0.67680419     177314.22    
        96   0              0.67680419     0              0.67680419     177314.22    
        97   0              0.67680419     0              0.67680419     177314.22    
        98   0              0.67680419     0              0.67680419     177314.22    
        99   0              0.67680419     0              0.67680419     177314.22    
       100   0              0.67680419     0              0.67680419     177314.22    
Loop time of 0.342887 on 1 procs for 100 steps with 107 atoms

Performance: 256.527 ns/day, 0.094 hours/ns, 291.641 timesteps/s
98.0% CPU use with 1 MPI tasks x no OpenMP threads

MPI task timing breakdown:
Section |  min time  |  avg time  |  max time  |%varavg| %total
---------------------------------------------------------------
Pair    | 0.34207    | 0.34207    | 0.34207    |   0.0 | 99.76
Neigh   | 0          | 0          | 0          |   0.0 |  0.00
Comm    | 0.00035438 | 0.00035438 | 0.00035438 |   0.0 |  0.10
Output  | 0.00036137 | 0.00036137 | 0.00036137 |   0.0 |  0.11
Modify  | 1.4541e-05 | 1.4541e-05 | 1.4541e-05 |   0.0 |  0.00
Other   |            | 9.067e-05  |            |       |  0.03

Nlocal:            107 ave         107 max         107 min
Histogram: 1 0 0 0 0 0 0 0 0 0
Nghost:            983 ave         983 max         983 min
Histogram: 1 0 0 0 0 0 0 0 0 0
Neighs:              0 ave           0 max           0 min
Histogram: 1 0 0 0 0 0 0 0 0 0
FullNghs:         8268 ave        8268 max        8268 min
Histogram: 1 0 0 0 0 0 0 0 0 0

Total # of neighbors = 8268
Ave neighs/atom = 77.271028
Neighbor list builds = 0
Dangerous builds = 0
reset_timestep  0

variable    i equal part
min_style   quickmin
neb         0.0 0.001 200 100 10 final atoms-1.data
WARNING: Using 'neigh_modify every 1 delay 0 check yes' setting during minimization (src/min.cpp:187)
Per MPI rank memory allocation (min/avg/max) = 12.14 | 12.14 | 12.14 Mbytes
   Step          Temp          E_pair         E_mol          TotEng         Press     
         0   0              0.67680419     0              0.67680419     177314.22    
         1   0.10595107     0.67680419     0              0.67825589     177315.44    
         2   0.42380429     0.6740901      0              0.67989689     177291.46    
         3   0.8502294      0.66982348     0              0.68147297     177243.3     
         4   1.1671214      0.66601564     0              0.68200704     177176.7     
         5   1.1031784      0.66399158     0              0.67910686     177108.14    
         6   0.47232622     0.66361661     0              0.67008823     177068.63    
         7   0.10062932     0.66368418     0              0.66506296     177052.13    
         8   0.0012497838   0.66368418     0              0.6637013      177050.98    
         9   0.0049991353   0.6636531      0              0.6637216      177052.37    
        10   0.0096395599   0.66361049     0              0.66374257     177055.1     
        11   0.0094581955   0.66359123     0              0.66372082     177058.29    
        12   0.00022364673  0.66359085     0              0.66359391     177058.46    
        13   3.9030416e-05  0.6635908      0              0.66359133     177058.3     
        14   8.2738351e-06  0.6635908      0              0.66359091     177058.38    
        15   1.3295663e-05  0.66359081     0              0.66359099     177058.29    
        16   2.0356225e-06  0.6635908      0              0.66359082     177058.31    
        17   2.1428103e-06  0.66359079     0              0.66359082     177058.35    
        18   3.7433224e-08  0.66359079     0              0.66359079     177058.35    
        19   1.680058e-09   0.66359079     0              0.66359079     177058.35    
        20   7.8278159e-10  0.66359079     0              0.66359079     177058.35    
        21   1.3657007e-09  0.66359079     0              0.66359079     177058.35    
        22   3.5112114e-09  0.66359079     0              0.66359079     177058.35    
        23   3.162058e-10   0.66359079     0              0.66359079     177058.35    
        24   4.5210653e-10  0.66359079     0              0.66359079     177058.35    
        25   1.0055849e-10  0.66359079     0              0.66359079     177058.35    
        26   1.5316329e-12  0.66359079     0              0.66359079     177058.35    
        27   4.5477103e-13  0.66359079     0              0.66359079     177058.35    
        28   5.3854926e-13  0.66359079     0              0.66359079     177058.35    
        29   1.6767404e-12  0.66359079     0              0.66359079     177058.35    
        30   7.2615364e-12  0.66359079     0              0.66359079     177058.35    
        31   6.5228194e-13  0.66359079     0              0.66359079     177058.35    
        32   1.1297429e-12  0.66359079     0              0.66359079     177058.35    
        33   4.8289814e-13  0.66359079     0              0.66359079     177058.35    
        34   4.1068988e-15  0.66359079     0              0.66359079     177058.35    
        35   6.7621862e-16  0.66359079     0              0.66359079     177058.35    
        36   4.6807874e-16  0.66359079     0              0.66359079     177058.35    
        37   8.3397087e-16  0.66359079     0              0.66359079     177058.35    
        38   2.6846818e-15  0.66359079     0              0.66359079     177058.35    
        39   3.7470644e-15  0.66359079     0              0.66359079     177058.35    
        40   1.2260064e-16  0.66359079     0              0.66359079     177058.35    
        41   1.7256495e-16  0.66359079     0              0.66359079     177058.35    
        42   6.2311571e-17  0.66359079     0              0.66359079     177058.35    
        43   7.4097128e-19  0.66359079     0              0.66359079     177058.35    
        44   4.7876626e-20  0.66359079     0              0.66359079     177058.35    
        45   2.1105523e-20  0.66359079     0              0.66359079     177058.35    
        46   2.7821448e-20  0.66359079     0              0.66359079     177058.35    
        47   8.6232091e-20  0.66359079     0              0.66359079     177058.35    
Loop time of 0.424124 on 1 procs for 47 steps with 107 atoms

94.0% CPU use with 1 MPI tasks x no OpenMP threads

Minimization stats:
  Stopping criterion = force tolerance
  Energy initial, next-to-last, final = 
     0.676804192773791  0.663590792037124  0.663590792037128
  Force two-norm initial, final = 0.42953348 5.7545346e-11
  Force max component initial, final = 0.079703141 1.4427792e-11
  Final line search alpha, max atom move = 0 0
  Iterations, force evaluations = 47 47

MPI task timing breakdown:
Section |  min time  |  avg time  |  max time  |%varavg| %total
---------------------------------------------------------------
Pair    | 0.21271    | 0.21271    | 0.21271    |   0.0 | 50.15
Neigh   | 0          | 0          | 0          |   0.0 |  0.00
Comm    | 0.00027129 | 0.00027129 | 0.00027129 |   0.0 |  0.06
Output  | 0.00042462 | 0.00042462 | 0.00042462 |   0.0 |  0.10
Modify  | 0.20574    | 0.20574    | 0.20574    |   0.0 | 48.51
Other   |            | 0.004978   |            |       |  1.17

Nlocal:            107 ave         107 max         107 min
Histogram: 1 0 0 0 0 0 0 0 0 0
Nghost:            983 ave         983 max         983 min
Histogram: 1 0 0 0 0 0 0 0 0 0
Neighs:              0 ave           0 max           0 min
Histogram: 1 0 0 0 0 0 0 0 0 0
FullNghs:         8268 ave        8268 max        8268 min
Histogram: 1 0 0 0 0 0 0 0 0 0

Total # of neighbors = 8268
Ave neighs/atom = 77.271028
Neighbor list builds = 0
Dangerous builds = 0
WARNING: Using 'neigh_modify every 1 delay 0 check yes' setting during minimization (src/min.cpp:187)
Per MPI rank memory allocation (min/avg/max) = 12.14 | 12.14 | 12.14 Mbytes
   Step          Temp          E_pair         E_mol          TotEng         Press     
        47   0              0.66359079     0              0.66359079     177058.35    
        48   1.9015674e-21  0.66359079     0              0.66359079     177058.35    
Loop time of 0.0208766 on 1 procs for 1 steps with 107 atoms

95.0% CPU use with 1 MPI tasks x no OpenMP threads

Minimization stats:
  Stopping criterion = force tolerance
  Energy initial, next-to-last, final = 
     0.663590792037135  0.663590792037135  0.663590792037135
  Force two-norm initial, final = 5.7544022e-11 5.7544022e-11
  Force max component initial, final = 1.4427265e-11 1.4427265e-11
  Final line search alpha, max atom move = 0 0
  Iterations, force evaluations = 1 1

MPI task timing breakdown:
Section |  min time  |  avg time  |  max time  |%varavg| %total
---------------------------------------------------------------
Pair    | 0.0088769  | 0.0088769  | 0.0088769  |   0.0 | 42.52
Neigh   | 0          | 0          | 0          |   0.0 |  0.00
Comm    | 1.3541e-05 | 1.3541e-05 | 1.3541e-05 |   0.0 |  0.06
Output  | 0          | 0          | 0          |   0.0 |  0.00
Modify  | 0.011773   | 0.011773   | 0.011773   |   0.0 | 56.39
Other   |            | 0.0002132  |            |       |  1.02

Nlocal:            107 ave         107 max         107 min
Histogram: 1 0 0 0 0 0 0 0 0 0
Nghost:            983 ave         983 max         983 min
Histogram: 1 0 0 0 0 0 0 0 0 0
Neighs:              0 ave           0 max           0 min
Histogram: 1 0 0 0 0 0 0 0 0 0
FullNghs:         8268 ave        8268 max        8268 min
Histogram: 1 0 0 0 0 0 0 0 0 0

Total # of neighbors = 8268
Ave neighs/atom = 77.271028
Neighbor list builds = 0
Dangerous builds = 0
write_data  neb.$i
write_data  neb.6
System init for write_data ...
#####################################



Total wall time: 0:00:00
