LAMMPS (23 Jun 2022)
Running on 7 partitions of processors
Step MaxReplicaForce MaxAtomForce GradV0 GradV1 GradVc EBF EBR RDT RD1 PE1 RD2 PE2 ... RDN PEN
0    2.0615068   0.58308404   0.42953348   0.42953348    2.0615068   0.93694208   0.93694208    2.5526555            0   0.67680419   0.16666667    1.0128518   0.33333333    1.4498668          0.5    1.6137463   0.66666667    1.4498668   0.83333333    1.0128518            1   0.67680419 
10   0.15025742 0.00098883832  0.021185684  0.021185684   0.15025742    0.5625815    0.5625815     2.752142            0   0.66361049   0.16783511   0.87656059   0.33436542    1.1482909          0.5     1.226192   0.66563458    1.1482909   0.83216489   0.87656059            1   0.66361049 
20  0.015182172 9.2997233e-06 4.0164286e-06 4.0164286e-06  0.011327826   0.55901933   0.55901933     2.794927            0   0.66359079   0.16800073   0.86992483   0.33376715    1.1442994          0.5    1.2226101   0.66623285    1.1442994   0.83199927   0.86992483            1   0.66359079 
30 0.0078685493 1.3831867e-06 5.3107532e-07 5.3107527e-07 0.0012803689    0.5589793    0.5589793    2.8035256            0   0.66359079   0.16728813   0.86702141   0.33354731    1.1437788          0.5    1.2225701   0.66645269    1.1437788   0.83271187   0.86702141            1   0.66359079 
40  0.002032005 2.5697879e-07 5.0735232e-09 5.073509e-09 0.00021100086   0.55897889   0.55897889    2.8051776            0   0.66359079   0.16697061   0.86602201   0.33344771    1.1435952          0.5    1.2225697   0.66655229    1.1435952   0.83302939   0.86602201            1   0.66359079 
47 0.00086836292 7.6612129e-08 5.7579449e-11 5.7545346e-11 5.3273496e-05   0.55897888   0.55897888    2.8057197            0   0.66359079   0.16683193   0.86561273   0.33339931     1.143514          0.5    1.2225697   0.66660069     1.143514   0.83316807   0.86561273            1   0.66359079 
Climbing replica = 4
Step MaxReplicaForce MaxAtomForce GradV0 GradV1 GradVc EBF EBR RDT RD1 PE1 RD2 PE2 ... RDN PEN
47 0.00086836292 7.6612129e-08 5.7579481e-11 5.7544022e-11 5.3273496e-05   0.55897888   0.55897888    2.8057197            0   0.66359079   0.16683193   0.86561273   0.33339931     1.143514          0.5    1.2225697   0.66660069     1.143514   0.83316807   0.86561273            1   0.66359079 
48 0.00086836292 7.6612129e-08 5.7579481e-11 5.7544022e-11 5.3273496e-05   0.55897888   0.55897888    2.8057197            0   0.66359079   0.16683193   0.86561273   0.33339931     1.143514          0.5    1.2225697   0.66660069     1.143514   0.83316807   0.86561273            1   0.66359079 
