LAMMPS data file via write_data, version 23 Jun 2022, timestep = 48

107 atoms
1 atom types

0 10.83 xlo xhi
0 10.83 ylo yhi
0 10.83 zlo zhi

Masses

1 63.546

Atoms # atomic

1 1 0 0.010414029586274217 0.010414029586271712 0 0 0
2 1 1.7945859704137275 0.01041402958627326 1.8049999999999993 0 0 0
3 1 1.794585970413726 1.8049999999999995 0.010414029586273124 0 0 0
4 1 0 0.010414029586273462 3.5995859704137265 0 0 0
5 1 0 1.805 5.427150679700019 0 0 0
6 1 1.803161210154148 0.0018387898458519505 5.415527718207447 0 0 0
7 1 1.794585970413727 1.805 3.599585970413726 0 0 0
8 1 4.255755178291426e-17 10.828093984601184 7.22 0 -1 0
9 1 0 1.8049999999999993 9.012849320299983 0 0 0
10 1 1.8031612101541472 0.0018387898458514993 9.024472281792553 0 0 0
11 1 1.8069060153988168 1.805 7.22 0 0 0
12 1 3.1580986311648304e-17 3.599585970413725 0.010414029586272168 0 0 0
13 1 4.868241939149098e-17 5.427150679700019 1.8049999999999997 0 0 0
14 1 1.7945859704137266 3.599585970413726 1.8050000000000004 0 0 0
15 1 1.8031612101541479 5.415527718207448 0.0018387898458515608 0 0 0
16 1 0 3.5995859704137256 3.5995859704137256 0 0 0
17 1 0 5.409715098774763 5.409715098774762 0 0 0
18 1 1.8031612101541479 3.608161210154147 5.415527718207447 0 0 0
19 1 1.8031612101541479 5.415527718207447 3.608161210154148 0 0 0
20 1 2.374377702323389e-16 3.6119060153988154 7.219999999999999 0 0 0
21 1 0 5.409715098774762 9.030284901225238 0 0 0
22 1 1.8031612101541477 3.608161210154147 9.024472281792553 0 0 0
23 1 1.8039148957438487 5.415050625504323 7.219999999999999 0 0 0
24 1 2.706499362732288e-16 7.219999999999999 10.828093984601184 0 0 -1
25 1 0 9.01284932029998 1.8049999999999995 0 0 0
26 1 1.806906015398816 7.22 1.8049999999999988 0 0 0
27 1 1.8031612101541477 9.024472281792551 0.001838789845851844 0 0 0
28 1 0 7.220000000000001 3.611906015398817 0 0 0
29 1 0 9.030284901225238 5.40971509877476 0 0 0
30 1 1.8039148957438482 7.22 5.415050625504323 0 0 0
31 1 1.8031612101541477 9.024472281792551 3.6081612101541483 0 0 0
32 1 0 7.219999999999998 7.219999999999999 0 0 0
33 1 3.272554326067122e-16 9.030284901225238 9.030284901225237 0 0 0
34 1 1.8039148957438487 7.219999999999999 9.024949374495677 0 0 0
35 1 1.803914895743849 9.024949374495677 7.22 0 0 0
36 1 3.610527718207448 0.0018387898458508986 0.0018387898458525212 0 0 0
37 1 3.622150679700018 1.8049999999999995 1.8049999999999997 0 0 0
38 1 5.415 10.828093984601182 1.805 0 -1 0
39 1 5.415 1.8049999999999997 10.828093984601184 0 0 -1
40 1 3.6105277182074476 0.001838789845851488 3.6081612101541474 0 0 0
41 1 3.604715098774762 1.8050000000000002 5.409715098774762 0 0 0
42 1 5.415 0.001085104256150774 5.415050625504323 0 0 0
43 1 5.415000000000001 1.8049999999999993 3.611906015398816 0 0 0
44 1 3.6100506255043237 0.0010851042561515483 7.22 0 0 0
45 1 3.6047150987747627 1.8050000000000004 9.030284901225237 0 0 0
46 1 5.415 0.0010851042561512193 9.024949374495675 0 0 0
47 1 5.415 1.8050000000000002 7.220000000000001 0 0 0
48 1 3.6105277182074476 3.608161210154147 0.0018387898458522896 0 0 0
49 1 3.6047150987747623 5.409715098774762 1.8049999999999995 0 0 0
50 1 5.415000000000001 3.6119060153988163 1.8049999999999995 0 0 0
51 1 5.415 5.415050625504323 0.0010851042561518844 0 0 0
52 1 3.6105277182074467 3.608161210154147 3.608161210154147 0 0 0
53 1 3.6089739676436134 5.4139739676436145 5.413973967643614 0 0 0
54 1 5.415 3.6089148957438475 5.415050625504324 0 0 0
55 1 5.415000000000001 5.415050625504324 3.608914895743848 0 0 0
56 1 3.610050625504324 3.6089148957438475 7.22 0 0 0
57 1 3.608973967643614 5.4139739676436145 9.026026032356386 0 0 0
58 1 5.415 3.608914895743847 9.024949374495675 0 0 0
59 1 5.415 5.414712113131968 7.22 0 0 0
60 1 3.610050625504323 7.219999999999999 0.0010851042561509394 0 0 0
61 1 3.6047150987747623 9.030284901225238 1.8049999999999997 0 0 0
62 1 5.415 7.22 1.8049999999999997 0 0 0
63 1 5.415 9.024949374495677 0.0010851042561514494 0 0 0
64 1 3.610050625504324 7.22 3.6089148957438484 0 0 0
65 1 3.6089739676436134 9.026026032356386 5.413973967643614 0 0 0
66 1 5.415 7.219999999999999 5.414712113131968 0 0 0
67 1 5.415 9.024949374495677 3.6089148957438475 0 0 0
68 1 3.6097121131319687 7.219999999999999 7.22 0 0 0
69 1 3.6089739676436143 9.026026032356386 9.026026032356386 0 0 0
70 1 5.415000000000001 7.219999999999999 9.02528788686803 0 0 0
71 1 5.415000000000001 9.025287886868032 7.22 0 0 0
72 1 7.2194722817925525 0.0018387898458506623 0.0018387898458523903 0 0 0
73 1 7.207849320299981 1.805 1.805 0 0 0
74 1 9.035414029586274 0.010414029586272862 1.805 0 0 0
75 1 9.035414029586274 1.8049999999999993 0.010414029586272267 0 0 0
76 1 7.219472281792552 0.0018387898458517907 3.6081612101541474 0 0 0
77 1 7.225284901225238 1.8049999999999997 5.409715098774761 0 0 0
78 1 9.026838789845852 0.0018387898458521927 5.415527718207447 0 0 0
79 1 9.035414029586274 1.805 3.599585970413726 0 0 0
80 1 7.219949374495676 0.0010851042561513605 7.220000000000001 0 0 0
81 1 7.225284901225238 1.8049999999999995 9.030284901225237 0 0 0
82 1 9.026838789845852 0.0018387898458522083 9.024472281792553 0 0 0
83 1 9.023093984601184 1.8049999999999997 7.22 0 0 0
84 1 7.2194722817925525 3.608161210154148 0.0018387898458530525 0 0 0
85 1 7.225284901225238 5.409715098774762 1.8049999999999993 0 0 0
86 1 9.035414029586274 3.599585970413726 1.8050000000000002 0 0 0
87 1 9.026838789845852 5.415527718207447 0.0018387898458518308 0 0 0
88 1 7.2194722817925525 3.6081612101541474 3.608161210154147 0 0 0
89 1 7.221026032356385 5.4139739676436145 5.413973967643613 0 0 0
90 1 9.026838789845854 3.6081612101541465 5.415527718207446 0 0 0
91 1 9.026838789845852 5.415527718207447 3.608161210154148 0 0 0
92 1 7.219949374495674 3.608914895743847 7.22 0 0 0
93 1 7.221026032356385 5.4139739676436145 9.026026032356386 0 0 0
94 1 9.026838789845854 3.6081612101541465 9.024472281792553 0 0 0
95 1 9.026085104256154 5.415050625504325 7.219999999999999 0 0 0
96 1 7.219949374495677 7.22 0.0010851042561514567 0 0 0
97 1 7.225284901225238 9.030284901225238 1.8049999999999988 0 0 0
98 1 9.023093984601184 7.22 1.804999999999999 0 0 0
99 1 9.02683878984585 9.024472281792551 0.001838789845852038 0 0 0
100 1 7.219949374495676 7.219999999999998 3.608914895743849 0 0 0
101 1 7.221026032356385 9.026026032356386 5.4139739676436145 0 0 0
102 1 9.026085104256152 7.219999999999998 5.415050625504323 0 0 0
103 1 9.026838789845854 9.024472281792553 3.608161210154147 0 0 0
104 1 7.2202878868680305 7.219999999999999 7.22 0 0 0
105 1 7.221026032356386 9.026026032356386 9.026026032356386 0 0 0
106 1 9.026085104256152 7.219999999999999 9.024949374495677 0 0 0
107 1 9.026085104256152 9.024949374495677 7.22 0 0 0

Velocities

1 5.148419658167283e-16 -2.2147214264521112e-12 -2.1630227123846816e-12
2 2.166036683059567e-12 -2.1997534688834188e-12 4.400557707574786e-15
3 2.2057331437988943e-12 -9.903526807813434e-16 -2.1856437488495397e-12
4 1.3557505099840513e-14 -2.1861047938521312e-12 2.176483684615931e-12
5 6.864559544223045e-15 -9.867804344820627e-15 5.134138156553013e-12
6 -1.6324780666105428e-12 1.6324426785575336e-12 -4.3673586644147706e-12
7 2.1793796706736505e-12 -7.582271366687283e-15 2.1909924406916755e-12
8 4.461963703744979e-15 8.531446215549007e-12 6.11531947822573e-16
9 7.636822492948138e-15 2.5727573240201714e-15 -5.183107135614186e-12
10 -1.6170113558874652e-12 1.636006050457492e-12 4.358377169228877e-12
11 -8.537184558293005e-12 -6.615357899158293e-15 9.239235930343458e-15
12 5.577454629681224e-15 2.2054220934445465e-12 -2.1626580326588944e-12
13 -6.864559544223045e-16 5.137650880382284e-12 -9.478692331625699e-17
14 2.1804951615995867e-12 2.194330198696625e-12 -1.713929230561294e-14
15 -1.6307190232273358e-12 -4.386918029392725e-12 1.634846845571003e-12
16 8.40908544167323e-15 2.1973830506658043e-12 2.1960155016941035e-12
17 8.237471453067654e-15 -1.8629623569792614e-12 -1.852113135137103e-12
18 -1.6325853253534213e-12 -1.619588947666413e-12 -4.371574142499627e-12
19 -1.6312553169417282e-12 -4.36714255480705e-12 -1.6325540171129464e-12
20 4.890998675258919e-15 -8.523616327318876e-12 1.8979106775247253e-14
21 6.950366538525833e-15 -1.849977345419535e-12 1.833180626284764e-12
22 -1.6291101420841584e-12 -1.6222641904653966e-12 4.358437586067639e-12
23 4.309688466480394e-12 1.0505634799546648e-11 1.012738650891141e-14
24 -5.32003364677286e-15 1.2687500539401652e-14 8.519586080055217e-12
25 6.521331567011893e-15 -5.120081898298788e-12 -4.779189429747334e-15
26 -8.518478633534996e-12 -1.5303374638370687e-15 1.380205430821992e-14
27 -1.6321455645076196e-12 4.373907522932592e-12 1.626997697378621e-12
28 2.745823817689218e-15 -1.3278632368356452e-14 -8.544987631837415e-12
29 -1.7161398860557612e-16 1.8342961172107004e-12 -1.812161934883439e-12
30 4.3172716596019024e-12 3.1873832392037107e-15 1.0517412202307955e-11
31 -1.6274690833181175e-12 4.380662393653043e-12 -1.6474992293339671e-12
32 9.610383361912263e-15 3.2839662094579525e-14 9.971336780325787e-15
33 -6.006489601195164e-15 1.8236131464200034e-12 1.8518919139799158e-12
34 4.309055639897411e-12 1.335485929900813e-14 -1.0524837120699555e-11
35 4.304475691576499e-12 -1.0521139914974879e-11 9.64523294162736e-17
36 -4.372552815681474e-12 1.6479233255850447e-12 1.6160889306987104e-12
37 5.159488760432343e-12 -1.8448503775099435e-15 -6.087564763718792e-16
38 -2.211572886214428e-15 8.553756034067731e-12 -2.1500573176780303e-15
39 9.743326712082487e-16 -7.658274241523835e-15 8.52449584901048e-12
40 -4.3677476240005175e-12 1.634451627479507e-12 -1.6235755909516285e-12
41 -1.831378344220834e-12 -1.2023705076678177e-14 -1.845034100005069e-12
42 -2.917437806294794e-15 -4.300474940467132e-12 1.0519090157453076e-11
43 -1.7934320818728546e-14 1.4801706517230941e-15 -8.529343944188587e-12
44 1.0510445102777071e-11 -4.3130885686296415e-12 -2.440602788281449e-15
45 -1.85083168644533e-12 -1.4908965260109424e-14 1.8622164478388453e-12
46 -3.1297896919453065e-15 -4.31394663857267e-12 -1.0491878614384804e-11
47 -1.4074601743790576e-15 -1.5220015614457032e-14 -2.428004865246276e-14
48 -4.368648597440697e-12 -1.6231465559801146e-12 1.6262141560264393e-12
49 -1.841895482939534e-12 -1.8445659742495297e-12 2.8745343091434002e-15
50 -1.7278943865812306e-14 -8.530362902245932e-12 6.7118375304274524e-15
51 -8.580699430278806e-17 1.0510563087394237e-11 -4.324672512860518e-12
52 -4.3504360628999305e-12 -1.6217227433035925e-12 -1.6264823238326087e-12
53 9.527901388638709e-13 9.257283639330704e-13 9.39772750666035e-13
54 -6.585686812738984e-15 4.3250871349384576e-12 1.0499107853654815e-11
55 -1.896334574091616e-14 1.0496126060602792e-11 4.3143141883077875e-12
56 1.0506738056272226e-11 4.328156146421853e-12 -5.041160915288799e-16
57 9.450113661283944e-13 9.220150916552472e-13 -9.43705323342063e-13
58 -3.0032448005975823e-16 4.3352911284054885e-12 -1.0486730194726638e-11
59 -6.628749372068034e-15 -2.229275559051295e-11 -4.6550294409262524e-15
60 1.0524549313230993e-11 1.3267906494068603e-14 -4.306864256842164e-12
61 -1.848347012527782e-12 1.8229695939627323e-12 1.5338000231623367e-15
62 1.043342142067066e-15 4.236596263831503e-15 -3.4322797721115226e-15
63 -1.2902200437640156e-15 -1.0527059482048948e-11 -4.324693964609094e-12
64 1.0506431237610469e-11 1.8233986289342464e-15 4.306243206200752e-12
65 9.556063512315741e-13 -9.492827779717443e-13 9.48420937213537e-13
66 -5.130775512842769e-15 1.83305191579331e-14 -2.2279710340180735e-11
67 2.6171133262350357e-15 -1.0524313658231258e-11 4.321712171557072e-12
68 -2.228090564145739e-11 1.86844730094321e-14 1.4963958430255754e-17
69 9.413919701274957e-13 -9.515137598236167e-13 -9.485534185201706e-13
70 -1.1412754258492427e-14 1.897407161520401e-14 2.229497171430557e-11
71 -1.707709216179789e-14 2.226597114463617e-11 -1.4500596061674312e-16
72 4.366406889714537e-12 1.6531491726482274e-12 1.6242709292706956e-12
73 -5.128212111008977e-12 -1.070442253927281e-14 -7.0745750445305915e-15
74 -2.191081599521693e-12 -2.1792402343079084e-12 -6.098850924774503e-15
75 -2.210216559251215e-12 6.645252669558412e-15 -2.165725632705219e-12
76 4.383954420049457e-12 1.62396256038492e-12 -1.6278351037781905e-12
77 1.8437670642068705e-12 -3.320733380520741e-15 -1.8281406385119754e-12
78 1.6232109112258418e-12 1.6297536945414294e-12 -4.368793396743583e-12
79 -2.195972598196952e-12 -1.0039418333426202e-14 2.184989302926195e-12
80 -1.0498389220077528e-11 -4.310142189816846e-12 -1.2765327424264248e-14
81 1.84521505723573e-12 4.730019221306499e-15 1.862592314316331e-12
82 1.6249270511118975e-12 1.6226531657628737e-12 4.356485455998277e-12
83 8.525353918953508e-12 -2.4669510862051567e-16 2.2933433310279955e-15
84 4.3716732939898704e-12 -1.6361374332523424e-12 1.6077545911934805e-12
85 1.84905492023078e-12 -1.8403924360090564e-12 4.357497545381081e-15
86 -2.192025476459024e-12 2.1865981840693724e-12 -1.4340493922853456e-14
87 1.628359330884009e-12 -4.3769504241394915e-12 1.6300325672729135e-12
88 4.371555309372704e-12 -1.6227909262107583e-12 -1.6208817205875212e-12
89 -9.258360167785074e-13 9.12740834568625e-13 9.608862047477138e-13
90 1.6020165836330531e-12 -1.6120345502179037e-12 -4.356742876981185e-12
91 1.6315341896732123e-12 -4.3734537891216535e-12 -1.6368220456971214e-12
92 -1.0466447566448315e-11 4.3379206016259226e-12 -3.361333278146837e-15
93 -9.237659230409527e-13 9.165305457217898e-13 -9.46409500600994e-13
94 1.5999572157697862e-12 -1.6130320565266736e-12 4.348205081048058e-12
95 -4.354018504912072e-12 1.047563695924443e-11 1.0746906462709901e-14
96 -1.0523798816265442e-11 -2.1966833126552733e-15 -4.315136273152069e-12
97 1.8455475593386536e-12 1.8227545737016184e-12 2.236348273134812e-14
98 8.526469409879444e-12 -1.2850848707923046e-15 1.3546776796690188e-14
99 1.6598504977931323e-12 4.374140245076076e-12 1.6228247797514792e-12
100 -1.0499611969746344e-11 3.426635928486629e-14 4.303004460899097e-12
101 -9.229936600922277e-13 -9.512910303403583e-13 9.270660566900023e-13
102 -4.327418336678207e-12 3.213923882795599e-14 1.0514811371571154e-11
103 1.5950662170945273e-12 4.356099324523914e-12 -1.6232430888487053e-12
104 2.2301109108803163e-11 1.3578068095105945e-14 -7.314285710608466e-16
105 -9.425683806675511e-13 -9.50506658885113e-13 -9.491792900440453e-13
106 -4.317121497361873e-12 1.2942904941876773e-14 -1.051774489818888e-11
107 -4.3170356903675705e-12 -1.0526538271595272e-11 -5.039096552851219e-15
