LAMMPS data file via write_data, version 23 Jun 2022, timestep = 48

107 atoms
1 atom types

0 10.83 xlo xhi
0 10.83 ylo yhi
0 10.83 zlo zhi

Masses

1 63.546

Atoms # atomic

1 1 3.316770393703231e-17 0.2726376283775808 0.2726376283775822 0 0 0
2 1 1.8856889151904574 0.00445129319418545 1.8363379060646239 0 0 0
3 1 1.885688915190458 1.8363379060646254 0.004451293194185862 0 0 0
4 1 0 0.03441412585775583 3.550502289674277 0 0 0
5 1 7.182044799825014e-16 1.8032999209000242 5.420362719344771 0 0 0
6 1 1.7958572809668423 0.006773514802489058 5.407417388217985 0 0 0
7 1 1.8061708574919555 1.8090044915921197 3.5998876660265813 0 0 0
8 1 0 0.00792633053242154 7.222973170271944 0 0 0
9 1 0 1.796360503168682 9.049844563062642 0 0 0
10 1 1.780040690335531 0.015112476002143483 9.065482889031962 0 0 0
11 1 1.7996392378736745 1.8031679992428555 7.232102696443963 0 0 0
12 1 7.101508406057967e-16 3.5505022896742777 0.03441412585775663 0 0 0
13 1 2.6844738318681586e-16 5.42036271934477 1.8032999209000231 0 0 0
14 1 1.806170857491955 3.5998876660265804 1.8090044915921184 0 0 0
15 1 1.7958572809668412 5.407417388217985 0.006773514802489235 0 0 0
16 1 10.829999999999998 3.5953864667936726 3.595386466793672 -1 0 0
17 1 6.650316788066273e-17 5.411945018990433 5.411945018990433 0 0 0
18 1 1.796488740975122 3.6094864239123168 5.420914693205128 0 0 0
19 1 1.796488740975122 5.420914693205128 3.6094864239123177 0 0 0
20 1 4.2116943982112323e-16 3.6046639799250597 7.232447707270489 0 0 0
21 1 0 5.401478287804845 9.045268654715777 0 0 0
22 1 1.8056406243177878 3.6108046501773083 9.028240613341431 0 0 0
23 1 1.7948197466944837 5.419926721396264 7.226258800941901 0 0 0
24 1 0 7.222973170271943 0.007926330532421247 0 0 0
25 1 0 9.049844563062642 1.7963605031686816 0 0 0
26 1 1.799639237873676 7.232102696443964 1.8031679992428562 0 0 0
27 1 1.7800406903355313 9.065482889031964 0.015112476002143788 0 0 0
28 1 7.01042507528928e-16 7.232447707270491 3.6046639799250615 0 0 0
29 1 0 9.045268654715777 5.401478287804842 0 0 0
30 1 1.7948197466944824 7.2262588009419 5.419926721396263 0 0 0
31 1 1.8056406243177878 9.028240613341431 3.6108046501773083 0 0 0
32 1 0 7.230711543997355 7.230711543997358 0 0 0
33 1 0 9.057845236434854 9.057845236434853 0 0 0
34 1 1.7929856232472816 7.2287184381251866 9.037414212181185 0 0 0
35 1 1.7929856232472818 9.037414212181186 7.228718438125188 0 0 0
36 1 3.6363332756109323 0.0012076839462060044 0.001207683946204605 0 0 0
37 1 3.6520542736603567 1.8201623851318502 1.8201623851318487 0 0 0
38 1 5.415000000000001 10.825770483406345 1.8157132944170729 0 -1 0
39 1 5.415 1.8157132944170709 10.825770483406346 0 0 -1
40 1 3.632857352614769 0.003111036906449158 3.6328001740330413 0 0 0
41 1 3.6000378190563227 1.8103272415900846 5.421394870453982 0 0 0
42 1 5.415 0.0005249006437147752 5.436202127383689 0 0 0
43 1 5.415 1.816550968820794 3.6326417383761638 0 0 0
44 1 3.5953615360756803 0.0017677894660580401 7.228202123463457 0 0 0
45 1 3.621933677056538 1.8086620989027689 9.01744808221406 0 0 0
46 1 5.414999999999999 10.826653941834458 9.016713540003565 0 -1 0
47 1 5.415 1.8090283313243134 7.215458133425965 0 0 0
48 1 3.632857352614767 3.63280017403304 0.003111036906451475 0 0 0
49 1 3.600037819056324 5.421394870453985 1.8103272415900848 0 0 0
50 1 5.414999999999999 3.632641738376163 1.816550968820793 0 0 0
51 1 5.415 5.43620212738369 0.000524900643717166 0 0 0
52 1 3.6102852388062647 3.6199291884507643 3.6199291884507647 0 0 0
53 1 3.6013208621697013 5.420898346330644 5.420898346330644 0 0 0
54 1 5.415000000000001 3.6192609697645186 5.423783314125494 0 0 0
55 1 5.415 5.423783314125495 3.619260969764518 0 0 0
56 1 3.6050224304705094 3.616827751438775 7.221035205428208 0 0 0
57 1 3.603760635007156 5.424654638229676 9.026054097866888 0 0 0
58 1 5.415000000000001 3.6235945222990584 9.017787751444867 0 0 0
59 1 5.415 5.424140529284548 7.2219616590415585 0 0 0
60 1 3.59536153607568 7.228202123463456 0.0017677894660579905 0 0 0
61 1 3.6219336770565365 9.01744808221406 1.8086620989027717 0 0 0
62 1 5.414999999999999 7.2154581334259635 1.8090283313243143 0 0 0
63 1 5.415000000000001 9.016713540003565 10.826653941834454 0 0 -1
64 1 3.6050224304705094 7.221035205428208 3.616827751438772 0 0 0
65 1 3.6037606350071574 9.026054097866892 5.424654638229676 0 0 0
66 1 5.415 7.2219616590415585 5.42414052928455 0 0 0
67 1 5.415 9.01778775144487 3.6235945222990567 0 0 0
68 1 3.600282924350508 7.226025544843148 7.22602554484315 0 0 0
69 1 3.5972070540534764 9.030649321149019 9.030649321149019 0 0 0
70 1 5.415000000000002 7.226393330896167 9.025593360453469 0 0 0
71 1 5.415000000000001 9.025593360453467 7.226393330896165 0 0 0
72 1 7.193666724389067 0.0012076839462073477 0.0012076839462061104 0 0 0
73 1 7.177945726339644 1.8201623851318496 1.8201623851318491 0 0 0
74 1 8.944311084809542 0.004451293194184681 1.836337906064625 0 0 0
75 1 8.94431108480954 1.8363379060646252 0.004451293194184853 0 0 0
76 1 7.197142647385231 0.003111036906448586 3.6328001740330387 0 0 0
77 1 7.2299621809436765 1.8103272415900855 5.421394870453984 0 0 0
78 1 9.03414271903316 0.006773514802488626 5.407417388217985 0 0 0
79 1 9.023829142508044 1.80900449159212 3.5998876660265795 0 0 0
80 1 7.234638463924319 0.0017677894660587657 7.228202123463456 0 0 0
81 1 7.208066322943464 1.8086620989027704 9.017448082214061 0 0 0
82 1 9.049959309664471 0.015112476002144359 9.065482889031964 0 0 0
83 1 9.030360762126325 1.803167999242855 7.232102696443964 0 0 0
84 1 7.197142647385233 3.632800174033039 0.0031110369064497215 0 0 0
85 1 7.2299621809436765 5.421394870453985 1.8103272415900857 0 0 0
86 1 9.023829142508045 3.5998876660265804 1.8090044915921204 0 0 0
87 1 9.03414271903316 5.407417388217985 0.00677351480248944 0 0 0
88 1 7.219714761193736 3.619929188450765 3.6199291884507656 0 0 0
89 1 7.228679137830298 5.420898346330642 5.420898346330643 0 0 0
90 1 9.033511259024877 3.6094864239123186 5.420914693205126 0 0 0
91 1 9.033511259024877 5.420914693205126 3.6094864239123186 0 0 0
92 1 7.224977569529489 3.6168277514387754 7.221035205428208 0 0 0
93 1 7.226239364992842 5.424654638229675 9.026054097866888 0 0 0
94 1 9.024359375682211 3.6108046501773083 9.028240613341431 0 0 0
95 1 9.035180253305517 5.419926721396262 7.226258800941901 0 0 0
96 1 7.234638463924318 7.228202123463458 0.0017677894660572205 0 0 0
97 1 7.208066322943464 9.017448082214063 1.808662098902772 0 0 0
98 1 9.030360762126325 7.232102696443964 1.8031679992428553 0 0 0
99 1 9.04995930966447 9.065482889031962 0.015112476002144567 0 0 0
100 1 7.224977569529492 7.221035205428208 3.616827751438773 0 0 0
101 1 7.226239364992843 9.026054097866888 5.424654638229676 0 0 0
102 1 9.035180253305517 7.226258800941902 5.419926721396262 0 0 0
103 1 9.024359375682211 9.028240613341431 3.610804650177309 0 0 0
104 1 7.22971707564949 7.226025544843151 7.22602554484315 0 0 0
105 1 7.232792945946522 9.030649321149015 9.030649321149019 0 0 0
106 1 9.03701437675272 7.228718438125188 9.037414212181185 0 0 0
107 1 9.037014376752719 9.037414212181185 7.228718438125188 0 0 0

Velocities

1 -1.238695130312758e-14 -0.0004278496884730545 -0.0004278496885036876
2 -0.00010862557264880214 0.00011813941711356031 3.399783770684036e-05
3 -0.00010862557265961382 3.399783767034557e-05 0.00011813941708448247
4 1.3914544435738041e-15 7.96970270964966e-05 0.0001446583790686553
5 -1.622486031433376e-14 7.740101608480528e-05 7.837176797828212e-05
6 9.582013378369363e-06 8.500066118472961e-05 8.526017805230973e-05
7 5.6177093262342925e-06 7.84228774481137e-05 0.00010000340425100855
8 -2.316788846175278e-15 8.44743093793992e-05 9.539633651402078e-05
9 6.864559544223045e-16 9.461791252291973e-05 2.5680220346192283e-05
10 3.6847438589341706e-05 8.336368024134381e-05 2.9181347945266353e-05
11 9.337899854589877e-06 7.794754267026723e-05 7.337148104213084e-05
12 -1.703197660879308e-14 0.0001446583790543577 7.969702707216495e-05
13 -2.503401878966235e-15 7.837176800881869e-05 7.7401016117908e-05
14 5.6177093358688086e-06 0.00010000340427475697 7.842287748357075e-05
15 9.582013404927968e-06 8.526017805382477e-05 8.500066118474672e-05
16 3.280259099948051e-14 7.731021849170584e-05 7.731021849721625e-05
17 1.1255725336371351e-15 7.486050229487298e-05 7.486050229546157e-05
18 3.425958289000134e-06 8.739487147592836e-05 7.061666846407472e-05
19 3.425958289221355e-06 7.061666845884049e-05 8.739487145527972e-05
20 -7.417325074936753e-15 9.368136120592167e-05 7.568366378850844e-05
21 2.66001682338643e-15 7.751200097946313e-05 6.82846585213736e-05
22 -3.744067393401388e-06 7.828265756683037e-05 8.065682737222764e-05
23 -5.609975780562225e-06 7.202582871276572e-05 8.761339744319777e-05
24 1.0714491145127053e-14 9.539633654665425e-05 8.44743093914742e-05
25 4.569437535246522e-15 2.568022033109025e-05 9.461791253121082e-05
26 9.337899814275337e-06 7.337148102691216e-05 7.794754265711865e-05
27 3.684743858300137e-05 2.9181347910277208e-05 8.336368022207746e-05
28 -1.4058999226436685e-14 7.56836637574329e-05 9.368136116330242e-05
29 6.006489601195164e-15 6.828465853433314e-05 7.751200104465232e-05
30 -5.609975744143189e-06 8.761339747011703e-05 7.20258287416438e-05
31 -3.7440673927471095e-06 8.065682738347373e-05 7.828265757058359e-05
32 5.32003364677286e-15 9.247981637851276e-05 9.247981632340322e-05
33 1.0897488276454083e-14 0.00012468101961501436 0.00012468101964779264
34 -2.9698870512262305e-06 9.028567202749041e-05 6.918379257455832e-05
35 -2.9698870566535225e-06 6.918379253745417e-05 9.028567198059153e-05
36 -1.4101590451732198e-05 8.982663338286604e-05 8.982663341105365e-05
37 -1.5803989212221533e-05 6.193327167255151e-05 6.193327171211356e-05
38 -2.8173763079483993e-14 8.662581442717947e-05 6.830773233166907e-05
39 -5.894331386019188e-15 6.830773237464279e-05 8.662581439768063e-05
40 -1.7938348153187123e-05 8.185378716402543e-05 6.323464275824833e-05
41 9.558248627991588e-06 7.226494368952443e-05 7.005618115760119e-05
42 7.851339978705108e-15 8.336017485012777e-05 5.901108748804112e-05
43 2.7758603573887805e-15 6.696762393307763e-05 7.846116137265902e-05
44 1.4964512962601621e-05 8.485206133510896e-05 7.739274849453544e-05
45 -1.7065158378806672e-05 7.715500245319572e-05 9.161871278532713e-05
46 1.71965980525673e-14 8.913257091930811e-05 7.644432214885611e-05
47 -1.6823150326979151e-15 7.484729547514003e-05 9.325034474267179e-05
48 -1.793834812483596e-05 6.323464278875272e-05 8.185378711631607e-05
49 9.558248592604247e-06 7.005618110087942e-05 7.226494368718016e-05
50 1.5588648626641502e-14 7.846116139102314e-05 6.696762395163272e-05
51 -2.1022713604183076e-15 5.9011087465472204e-05 8.336017480125399e-05
52 8.74513127862993e-06 8.564095406342432e-05 8.56409540447757e-05
53 -2.532732008646061e-06 7.368301757645126e-05 7.368301756730142e-05
54 -2.25364955923896e-14 8.768081211504317e-05 7.537366944450756e-05
55 1.406523245328042e-15 7.537366943075432e-05 8.76808121295898e-05
56 -1.9073141236993689e-06 8.45349342099396e-05 8.79466820494937e-05
57 -4.455185017647213e-06 6.947444928142269e-05 7.329225717907119e-05
58 -1.9833195440934426e-14 8.148412632689504e-05 7.51196549668534e-05
59 -6.163910661575114e-15 7.23493013130625e-05 8.53204301239021e-05
60 1.4964512964404908e-05 7.739274851227604e-05 8.485206132869755e-05
61 -1.7065158343459553e-05 9.161871279115127e-05 7.715500238200943e-05
62 2.4731790835236923e-14 9.325034480155149e-05 7.484729545165976e-05
63 -2.1864569566066973e-14 7.644432216471967e-05 8.91325709949148e-05
64 -1.907314122455838e-06 8.794668206330997e-05 8.453493428247936e-05
65 -4.455185055470333e-06 7.329225710196823e-05 6.947444928626542e-05
66 -5.9170918761887185e-15 8.532043012560751e-05 7.234930126689162e-05
67 -3.1852112226789063e-15 7.511965490545313e-05 8.14841263607687e-05
68 -4.18582590146587e-06 8.402182769679192e-05 8.402182766161374e-05
69 1.073946404207056e-05 6.788121262599687e-05 6.788121262829221e-05
70 -4.867975237273608e-14 8.043020109542915e-05 6.765202232248485e-05
71 -2.2398492940267456e-14 6.76520223570034e-05 8.043020114053415e-05
72 1.410159046679669e-05 8.982663335417434e-05 8.98266333832924e-05
73 1.5803989198682128e-05 6.193327168992776e-05 6.193327170464299e-05
74 0.0001086255726702539 0.00011813941712563765 3.399783767865276e-05
75 0.00010862557271107657 3.399783767819155e-05 0.00011813941711690679
76 1.7938348153230027e-05 8.18537871792793e-05 6.323464282035383e-05
77 -9.558248608745346e-06 7.226494367195947e-05 7.005618112214413e-05
78 -9.58201341608958e-06 8.50006611888564e-05 8.526017805229096e-05
79 -5.617709322633079e-06 7.842287743065866e-05 0.00010000340429370959
80 -1.4964512942671605e-05 8.485206132177668e-05 7.739274851707319e-05
81 1.706515834622683e-05 7.715500241869326e-05 9.16187127453786e-05
82 -3.684743862926073e-05 8.336368020945713e-05 2.9181347922026063e-05
83 -9.337899841275044e-06 7.794754268152673e-05 7.33714810257913e-05
84 1.7938348124760877e-05 6.323464281466643e-05 8.18537871586407e-05
85 -9.558248606557269e-06 7.005618109916361e-05 7.226494366871623e-05
86 -5.617709351145135e-06 0.00010000340428105306 7.842287742947078e-05
87 -9.582013427783464e-06 8.526017805699426e-05 8.500066117415692e-05
88 -8.745131305949234e-06 8.564095403856978e-05 8.564095402399735e-05
89 2.532732018981111e-06 7.368301763200861e-05 7.36830176087214e-05
90 -3.425958271802535e-06 8.739487143538323e-05 7.061666849994438e-05
91 -3.4259582643131935e-06 7.061666850033052e-05 8.739487143900455e-05
92 1.9073141453160279e-06 8.453493419909406e-05 8.794668205302654e-05
93 4.455185071560317e-06 6.947444930851356e-05 7.329225717459179e-05
94 3.7440674150491346e-06 7.828265757031234e-05 8.065682737253601e-05
95 5.609975746057088e-06 7.202582875539703e-05 8.761339743764713e-05
96 -1.496451292036983e-05 7.739274848085861e-05 8.48520613549183e-05
97 1.7065158343513184e-05 9.161871271599507e-05 7.715500237963633e-05
98 -9.337899832179503e-06 7.33714810281939e-05 7.794754267511935e-05
99 -3.684743860666935e-05 2.9181347940820477e-05 8.336368020532229e-05
100 1.9073140974853322e-06 8.794668205634351e-05 8.453493424406061e-05
101 4.4551850498176295e-06 7.329225716709842e-05 6.947444928590276e-05
102 5.60997575197777e-06 8.761339742391264e-05 7.202582875858933e-05
103 3.744067417537538e-06 8.065682737609432e-05 7.82826575606785e-05
104 4.185825948464976e-06 8.402182762865715e-05 8.402182765125387e-05
105 -1.0739463995632216e-05 6.78812126994262e-05 6.788121263100586e-05
106 2.9698870093252674e-06 9.0285671983576e-05 6.918379257326115e-05
107 2.9698870466141043e-06 6.918379257513416e-05 9.028567198549056e-05
