LAMMPS data file via write_data, version 23 Jun 2022, timestep = 48

107 atoms
1 atom types

0 10.83 xlo xhi
0 10.83 ylo yhi
0 10.83 zlo zhi

Masses

1 63.546

Atoms # atomic

1 1 0 1.7945859704137261 1.7945859704137264 0 0 0
2 1 1.7945859704137257 1.8669246905491168e-16 1.794585970413726 0 0 0
3 1 1.794585970413726 1.7945859704137261 4.979406349997376e-16 0 0 0
4 1 10.829999999999998 0 3.622150679700019 -1 0 0
5 1 1.4306202973219043e-17 1.8069060153988172 5.415 0 0 0
6 1 1.8069060153988166 5.277954483723871e-16 5.415000000000001 0 0 0
7 1 1.8031612101541477 1.8031612101541483 3.6105277182074476 0 0 0
8 1 10.829999999999998 0 7.207849320299981 -1 0 0
9 1 10.829999999999998 1.7945859704137266 9.035414029586274 -1 0 0
10 1 1.794585970413727 10.829999999999998 9.035414029586274 0 -1 0
11 1 1.8031612101541483 1.803161210154148 7.219472281792552 0 0 0
12 1 0 3.622150679700019 0 0 0 0
13 1 0 5.415 1.8069060153988168 0 0 0
14 1 1.803161210154148 3.6105277182074467 1.803161210154148 0 0 0
15 1 1.8069060153988168 5.415000000000001 0 0 0 0
16 1 0 3.604715098774762 3.6047150987747623 0 0 0
17 1 7.51514776207541e-17 5.415000000000001 5.415 0 0 0
18 1 1.8039148957438478 3.6100506255043228 5.415 0 0 0
19 1 1.803914895743848 5.415 3.6100506255043237 0 0 0
20 1 0 3.6047150987747614 7.225284901225237 0 0 0
21 1 9.98721743188602e-17 5.415 9.023093984601184 0 0 0
22 1 1.8031612101541477 3.610527718207448 9.026838789845852 0 0 0
23 1 1.8039148957438482 5.415 7.219949374495677 0 0 0
24 1 0 7.207849320299981 0 0 0 0
25 1 0 9.035414029586274 1.7945859704137268 0 0 0
26 1 1.8031612101541488 7.2194722817925525 1.803161210154148 0 0 0
27 1 1.794585970413727 9.035414029586274 1.7554139202732604e-16 0 0 0
28 1 6.080673558922939e-17 7.225284901225238 3.6047150987747627 0 0 0
29 1 0 9.023093984601184 5.415 0 0 0
30 1 1.8039148957438476 7.219949374495677 5.414999999999999 0 0 0
31 1 1.803161210154148 9.02683878984585 3.6105277182074476 0 0 0
32 1 0 7.225284901225237 7.225284901225237 0 0 0
33 1 0 9.035414029586274 9.035414029586274 0 0 0
34 1 1.8031612101541479 7.219472281792552 9.026838789845852 0 0 0
35 1 1.803161210154148 9.026838789845852 7.219472281792552 0 0 0
36 1 3.622150679700019 0 0 0 0 0
37 1 3.610527718207447 1.803161210154148 1.8031612101541479 0 0 0
38 1 5.415000000000001 2.1897814059186387e-16 1.8069060153988163 0 0 0
39 1 5.415000000000001 1.8069060153988163 0 0 0 0
40 1 3.6047150987747627 6.535213466240113e-16 3.604715098774763 0 0 0
41 1 3.610050625504323 1.803914895743848 5.415 0 0 0
42 1 5.415 0 5.414999999999999 0 0 0
43 1 5.415 1.8039148957438478 3.6100506255043237 0 0 0
44 1 3.6047150987747614 2.1339778628260533e-16 7.225284901225238 0 0 0
45 1 3.610527718207448 1.8031612101541477 9.026838789845852 0 0 0
46 1 5.415 7.612633257961991e-17 9.023093984601184 0 0 0
47 1 5.415 1.8039148957438482 7.219949374495677 0 0 0
48 1 3.6047150987747627 3.6047150987747627 7.308800995005947e-17 0 0 0
49 1 3.610050625504323 5.415 1.8039148957438482 0 0 0
50 1 5.415 3.6100506255043237 1.8039148957438482 0 0 0
51 1 5.415 5.414999999999999 0 0 0 0
52 1 3.6089739676436134 3.6089739676436134 3.6089739676436134 0 0 0
53 1 3.6097121131319696 5.415 5.415 0 0 0
54 1 5.415 3.6097121131319696 5.415000000000001 0 0 0
55 1 5.415 5.415 3.6097121131319696 0 0 0
56 1 3.608973967643614 3.6089739676436134 7.221026032356386 0 0 0
57 1 3.6100506255043228 5.415 9.026085104256152 0 0 0
58 1 5.415 3.610050625504323 9.026085104256152 0 0 0
59 1 5.415 5.415 7.2202878868680305 0 0 0
60 1 3.604715098774762 7.225284901225238 5.178421579882656e-16 0 0 0
61 1 3.6105277182074476 9.02683878984585 1.8031612101541479 0 0 0
62 1 5.414999999999999 7.219949374495677 1.8039148957438484 0 0 0
63 1 5.414999999999999 9.023093984601184 4.93190724470344e-16 0 0 0
64 1 3.608973967643613 7.221026032356387 3.608973967643613 0 0 0
65 1 3.610050625504323 9.026085104256152 5.415 0 0 0
66 1 5.415 7.2202878868680305 5.415 0 0 0
67 1 5.415 9.026085104256152 3.6100506255043245 0 0 0
68 1 3.6089739676436143 7.221026032356385 7.221026032356386 0 0 0
69 1 3.610527718207447 9.026838789845852 9.026838789845852 0 0 0
70 1 5.415000000000001 7.219949374495676 9.02608510425615 0 0 0
71 1 5.415000000000001 9.026085104256152 7.219949374495677 0 0 0
72 1 7.207849320299981 8.314223291931896e-17 0 0 0 0
73 1 7.219472281792552 1.8031612101541477 1.8031612101541483 0 0 0
74 1 9.035414029586274 3.267994627754938e-17 1.7945859704137268 0 0 0
75 1 9.035414029586274 1.7945859704137264 0 0 0 0
76 1 7.225284901225238 0 3.6047150987747627 0 0 0
77 1 7.219949374495676 1.8039148957438482 5.415 0 0 0
78 1 9.023093984601184 0 5.415 0 0 0
79 1 9.026838789845852 1.8031612101541479 3.610527718207447 0 0 0
80 1 7.225284901225238 0 7.225284901225238 0 0 0
81 1 7.219472281792552 1.8031612101541472 9.026838789845852 0 0 0
82 1 9.035414029586274 0 9.035414029586274 0 0 0
83 1 9.026838789845852 1.8031612101541474 7.2194722817925525 0 0 0
84 1 7.225284901225237 3.6047150987747627 0 0 0 0
85 1 7.219949374495676 5.415 1.8039148957438484 0 0 0
86 1 9.026838789845852 3.6105277182074476 1.803161210154148 0 0 0
87 1 9.023093984601184 5.415 0 0 0 0
88 1 7.221026032356386 3.608973967643614 3.608973967643614 0 0 0
89 1 7.2202878868680305 5.414999999999999 5.415 0 0 0
90 1 9.026085104256152 3.610050625504323 5.415 0 0 0
91 1 9.026085104256152 5.415 3.6100506255043237 0 0 0
92 1 7.221026032356385 3.6089739676436143 7.221026032356384 0 0 0
93 1 7.219949374495676 5.415000000000001 9.026085104256152 0 0 0
94 1 9.026838789845852 3.6105277182074476 9.026838789845852 0 0 0
95 1 9.026085104256152 5.415 7.219949374495676 0 0 0
96 1 7.225284901225237 7.225284901225237 0 0 0 0
97 1 7.2194722817925525 9.026838789845852 1.8031612101541477 0 0 0
98 1 9.026838789845852 7.2194722817925525 1.8031612101541477 0 0 0
99 1 9.035414029586274 9.035414029586274 0 0 0 0
100 1 7.221026032356385 7.221026032356386 3.608973967643614 0 0 0
101 1 7.219949374495676 9.026085104256152 5.414999999999999 0 0 0
102 1 9.026085104256152 7.219949374495676 5.415 0 0 0
103 1 9.026838789845852 9.026838789845852 3.6105277182074476 0 0 0
104 1 7.221026032356385 7.221026032356386 7.221026032356388 0 0 0
105 1 7.2194722817925525 9.026838789845852 9.02683878984585 0 0 0
106 1 9.026838789845852 7.2194722817925525 9.026838789845852 0 0 0
107 1 9.026838789845852 9.026838789845852 7.2194722817925525 0 0 0

Velocities

1 -2.1451748575697014e-15 2.1926261254191434e-12 2.1897944946071514e-12
2 2.1998339129405776e-12 -7.411719302905182e-15 2.205475722815986e-12
3 2.192368704436235e-12 2.191515997430351e-12 -1.4672996025776758e-14
4 2.8659536097131215e-14 1.9950126175398225e-15 5.150672091767732e-12
5 -2.0593678632669134e-15 -8.550152140307013e-12 -4.215268595124463e-15
6 -8.542772738796974e-12 -2.51602272296612e-15 -1.9214059985386903e-14
7 -1.6349021141995967e-12 -1.6473655801220766e-12 -4.364950349504604e-12
8 2.6256940256653146e-14 5.4058406410756475e-15 -5.132330846735511e-12
9 3.346472777808734e-14 2.183959618994562e-12 -2.197034459751449e-12
10 2.171989543289323e-12 3.054728997179255e-14 -2.2016144080723603e-12
11 -1.6444052388186304e-12 -1.6399432751148855e-12 4.38922082432479e-12
12 2.917437806294794e-15 5.148505465161586e-12 9.438769373306687e-16
13 4.890998675258919e-15 -8.517851143011784e-16 -8.535162730989745e-12
14 -1.6375192275258316e-12 -4.354053049768909e-12 -1.6381374801700088e-12
15 -8.538246419847502e-12 -1.4620011249191977e-14 7.277935157405e-15
16 -1.7161398860557612e-16 -1.836527099062573e-12 -1.844362350229846e-12
17 3.775507749322675e-15 -1.7345677947255332e-14 -9.28203441128972e-16
18 4.319781514185259e-12 1.0531633653690495e-11 -1.6142912155109419e-15
19 4.320489421888257e-12 -6.5791733187065775e-15 1.0512013751417182e-11
20 -1.0296839316334567e-15 -1.8304562542156506e-12 1.85628415950079e-12
21 -1.8877538746613373e-15 -4.3547049608664945e-15 8.522929871364455e-12
22 -1.6318130624046964e-12 -4.380125282928695e-12 1.627726504301026e-12
23 4.316166894550255e-12 -4.994401230689917e-15 -1.0519858691484569e-11
24 2.402595840478066e-15 -5.133076294998517e-12 5.770520366862497e-15
25 1.8019468803585493e-15 -2.2008206933750595e-12 2.18237218959996e-12
26 -1.6518382697001094e-12 4.366070658694381e-12 -1.6345073870996603e-12
27 2.179111523816454e-12 -2.2027660988240182e-12 4.798261538863474e-15
28 -5.148419658167283e-16 1.8465128880245598e-12 -1.8526279771029193e-12
29 1.7161398860557612e-16 8.528271356759803e-12 -2.126984919199026e-15
30 4.329155928312839e-12 -1.0519998274493123e-11 1.4684613901538638e-14
31 -1.6394498848976443e-12 1.6645484307312098e-12 -4.36614310024377e-12
32 8.580699430278806e-17 1.8599095050100827e-12 1.8585352523669522e-12
33 6.006489601195165e-16 -2.202343767523934e-12 -2.1997910094434263e-12
34 -1.6347948554567182e-12 4.382811883999096e-12 1.6228395225913816e-12
35 -1.6387205254460707e-12 1.6229963937400847e-12 4.379020517877046e-12
36 5.14614577281826e-12 2.402595840478066e-15 5.7490686182868004e-15
37 -4.359868840866896e-12 -1.6361892191141385e-12 -1.6345957132079928e-12
38 -1.630780631294342e-14 -7.036173532828621e-15 -8.526048419313647e-12
39 -1.267981088286184e-14 -8.528367889628393e-12 1.3172496867740968e-15
40 -1.858890546952737e-12 -8.763496057103511e-15 -1.8611846271119434e-12
41 1.0521572657914653e-11 4.321068619099801e-12 -1.2235051411614203e-15
42 -8.795216916035776e-16 4.547770698047767e-15 2.0673934327149945e-14
43 -1.553171276835276e-15 4.32850164998128e-12 1.0514534777040507e-11
44 -1.827184862557857e-12 -2.435929628532932e-15 1.8444040805844975e-12
45 -4.37690752064234e-12 -1.6277905243631816e-12 1.6329810095595716e-12
46 -4.724747623797268e-15 -3.003244800597582e-15 8.526061826656506e-12
47 -3.069316798885096e-15 4.3108683126520575e-12 -1.0517032743081562e-11
48 -1.850685253122533e-12 -1.8535571059631042e-12 9.438769373306687e-16
49 1.0515536467906676e-11 -2.5682885527042898e-15 4.320081838665319e-12
50 -1.458701227451244e-15 1.051056180950687e-11 4.322398627511494e-12
51 -7.121980527131409e-15 1.5695549955462385e-14 -1.1154909259362447e-15
52 9.532298997096726e-13 9.502336544847515e-13 9.532998391660731e-13
53 -2.230440195220953e-11 -1.2919235721284168e-15 -6.1834916604444785e-15
54 -7.98005047015929e-15 -2.230057867556403e-11 -1.9220766723824527e-14
55 -4.5263189494720706e-15 -2.1451748575697014e-15 -2.2297812939747296e-11
56 9.410994177165e-13 9.49638910516458e-13 -9.41667407227372e-13
57 1.052648514499919e-11 -1.3968336462709768e-15 -4.321926689042829e-12
58 4.0651063550945846e-15 1.0516396119497183e-11 -4.325788003786454e-12
59 -1.663630980112258e-15 -3.5274060043604016e-15 2.230142015915751e-11
60 -1.8294722390456334e-12 1.8405171242976524e-12 -1.0667897486700039e-14
61 -4.3664833115688375e-12 1.6658569873943275e-12 -1.6294533700613697e-12
62 1.3050492479020837e-14 -1.0517073693086961e-11 4.315590499263879e-12
63 1.203389223599396e-14 8.52260809513582e-12 -8.923927407489958e-15
64 9.611644490100014e-13 -9.61628259277058e-13 9.638421467667841e-13
65 1.0517584345258133e-11 -4.325788003786454e-12 5.436624713653999e-15
66 1.7747095562040493e-15 2.2298642157716958e-11 1.4322420208167363e-15
67 -3.2392140349302494e-15 -4.323900249911793e-12 1.0495874672924171e-11
68 9.35960341300388e-13 -9.281742573732585e-13 -9.45709071681435e-13
69 -4.360689998719113e-12 1.6218379993169972e-12 1.6230822007343876e-12
70 -2.0940909968087197e-14 -1.0505693540467554e-11 -4.293621578149094e-12
71 -1.8309261573898915e-14 -4.316949883373267e-12 -1.0522651482900214e-11
72 -5.132969036255638e-12 -4.890998675258919e-15 4.719384686653343e-16
73 4.381584001831843e-12 -1.6257839479124252e-12 -1.6355262260097208e-12
74 -2.2018074738095417e-12 7.722629487250925e-16 2.1811521213997173e-12
75 -2.203823938175657e-12 2.188979328161275e-12 6.5642350641632864e-15
76 1.847071974221814e-12 1.8877538746613373e-15 -1.847993058676283e-12
77 -1.0505007084513131e-11 4.315718052324563e-12 -3.682620865812221e-16
78 8.523208744095938e-12 5.32003364677286e-15 -1.3395500400087095e-15
79 1.6241547881631725e-12 -1.6278873924153436e-12 -4.362581774796633e-12
80 1.844792725935646e-12 3.4322797721115226e-15 1.8379522996085707e-12
81 4.383608824838272e-12 -1.6187811251449603e-12 1.6252226607636723e-12
82 -2.201292631843725e-12 -3.4751832692629164e-15 -2.1919212343682887e-12
83 1.6183199125505829e-12 -1.6247125336261406e-12 4.367146975040398e-12
84 1.8591586938099332e-12 -1.848860765146991e-12 3.329891665506328e-16
85 -1.0504771115278799e-11 1.829535868881105e-15 4.319209811468885e-12
86 1.623125104231539e-12 -4.366156172403059e-12 -1.6347197743367031e-12
87 8.525525532942113e-12 -3.5481114424621746e-15 4.504867200896373e-15
88 -9.47963495434339e-13 9.429871925401345e-13 9.452577470024167e-13
89 2.230136652978607e-11 1.6187154433267573e-14 -3.46184168645597e-15
90 -4.319781514185259e-12 1.0515536541228084e-11 -1.0711913761164647e-15
91 -4.325702196792152e-12 -9.331510630428201e-16 1.0510849669347865e-11
92 -9.287320028362266e-13 9.382636809057571e-13 -9.139683396543604e-13
93 -1.0503837964215756e-11 -2.0660250424762814e-14 -4.326844004865694e-12
94 1.6194354034765191e-12 -4.3655809973943724e-12 1.6225888105171465e-12
95 -4.326131231763666e-12 -3.2497137260099477e-15 -1.050303067458381e-11
96 1.8534739804373737e-12 1.8621328614357036e-12 1.5426928622935704e-15
97 4.368927470172181e-12 1.6255538443905937e-12 -1.631430115174263e-12
98 1.625527700072017e-12 4.370222619492439e-12 -1.6324941554219747e-12
99 -2.200777789877908e-12 -2.2003487549063944e-12 2.1022713604183076e-15
100 -9.318532322539904e-13 -9.46246957517792e-13 9.42248929774943e-13
101 -1.0503376751621378e-11 -4.327181744211922e-12 1.4336205141457112e-14
102 -4.334454510211036e-12 -1.0503219718118133e-11 2.6657030287104496e-15
103 1.6239831741745668e-12 1.62162348183124e-12 -4.36432070716555e-12
104 -9.275628825388512e-13 -9.473468833566269e-13 -9.76607382648476e-13
105 4.370171671589571e-12 1.6330200584456506e-12 1.6625924669997493e-12
106 1.6327354875934512e-12 4.3710297415326e-12 1.6306761197301842e-12
107 1.6306761197301842e-12 1.6218379993169972e-12 4.36436763286556e-12
