LAMMPS data file via write_data, version 23 Jun 2022, timestep = 48

107 atoms
1 atom types

0 10.83 xlo xhi
0 10.83 ylo yhi
0 10.83 zlo zhi

Masses

1 63.546

Atoms # atomic

1 1 4.336391425155978e-16 1.5323623716224182 1.5323623716224173 0 0 0
2 1 1.8856889151904592 10.798662093935377 1.8005487068058135 0 -1 0
3 1 1.885688915190459 1.800548706805814 10.798662093935377 0 0 -1
4 1 8.572984860567127e-16 0.008639496831319501 3.5851554369373595 0 0 0
5 1 10.829999999999998 1.7970736694675782 5.412026829728057 -1 0 0
6 1 1.7996392378736754 0.001832000757145912 5.402897303556036 0 0 0
7 1 1.7800406903355313 1.7898875239978542 3.569517110968037 0 0 0
8 1 0 0.0017000790999768573 7.2146372806552295 0 0 0
9 1 1.0487177138863464e-15 1.7705858741422429 9.08449771032572 0 0 0
10 1 1.8061708574919555 10.82599550840788 9.03511233397342 0 -1 0
11 1 1.7958572809668412 1.798226485197511 7.227582611782015 0 0 0
12 1 3.3745003939486035e-16 3.58515543693736 0.008639496831320377 0 0 0
13 1 0 5.412026829728057 1.7970736694675764 0 0 0
14 1 1.7800406903355308 3.5695171109680364 1.789887523997854 0 0 0
15 1 1.7996392378736743 5.4028973035560375 0.001832000757145391 0 0 0
16 1 10.829999999999998 3.577154763565146 3.577154763565147 -1 0 0
17 1 4.892525311745186e-16 5.404288456002643 5.404288456002642 0 0 0
18 1 1.792985623247283 3.597585787818817 5.406281561874813 0 0 0
19 1 1.7929856232472818 5.406281561874812 3.5975857878188164 0 0 0
20 1 0 3.5897313452842243 7.233521712195158 0 0 0
21 1 10.829999999999998 5.40255229272951 9.030336020074941 -1 0 0
22 1 1.8056406243177883 3.60675938665857 9.024195349822689 0 0 0
23 1 1.7948197466944846 5.408741199058096 7.215073278603738 0 0 0
24 1 7.223596253795494e-16 7.214637280655229 0.0017000790999759936 0 0 0
25 1 1.3535705209079995e-15 9.084497710325723 1.770585874142243 0 0 0
26 1 1.7958572809668407 7.227582611782014 1.79822648519751 0 0 0
27 1 1.8061708574919553 9.035112333973421 10.82599550840788 0 0 -1
28 1 4.7755023917939e-16 7.233521712195158 3.5897313452842265 0 0 0
29 1 2.9898872271018004e-16 9.030336020074937 5.40255229272951 0 0 0
30 1 1.7948197466944815 7.2150732786037395 5.408741199058098 0 0 0
31 1 1.805640624317786 9.02419534982269 3.6067593866585708 0 0 0
32 1 0 7.223054981009569 7.223054981009566 0 0 0
33 1 0 9.039613533206328 9.039613533206328 0 0 0
34 1 1.7964887409751233 7.214085306794874 9.025513576087683 0 0 0
35 1 1.7964887409751225 9.02551357608768 7.214085306794874 0 0 0
36 1 3.652054273660355 10.814837614868152 10.814837614868152 0 -1 -1
37 1 3.6363332756109323 1.8037923160537925 1.8037923160537923 0 0 0
38 1 5.414999999999998 10.819286705582929 1.8092295165936554 0 -1 0
39 1 5.415 1.8092295165936567 10.819286705582929 0 0 -1
40 1 3.621933677056538 10.826337901097231 3.6175519177859385 0 -1 0
41 1 3.5953615360756803 1.803232210533941 5.406797876536543 0 0 0
42 1 5.415 10.825971668675688 5.419541866574035 0 -1 0
43 1 5.415 1.8083460581655397 3.6182864599964373 0 0 0
44 1 3.600037819056325 10.824672758409916 7.213605129546017 0 -1 0
45 1 3.632857352614769 1.80188896309355 9.002199825966962 0 0 0
46 1 5.415 10.81844903117921 9.002358261623835 0 -1 0
47 1 5.415 1.804475099356282 7.198797872616312 0 0 0
48 1 3.6219336770565382 3.6175519177859377 10.826337901097231 0 0 -1
49 1 3.59536153607568 5.406797876536544 1.8032322105339413 0 0 0
50 1 5.415 3.6182864599964364 1.8083460581655402 0 0 0
51 1 5.414999999999999 5.419541866574036 10.825971668675688 0 0 -1
52 1 3.597207054053477 3.6043506788509845 3.6043506788509845 0 0 0
53 1 3.6002829243505086 5.408974455156846 5.40897445515685 0 0 0
54 1 5.415 3.6094066395465365 5.408606669103834 0 0 0
55 1 5.415 5.4086066691038335 3.6094066395465347 0 0 0
56 1 3.6037606350071556 3.608945902133114 7.210345361770323 0 0 0
57 1 3.6050224304705085 5.413964794571792 9.018172248561225 0 0 0
58 1 5.415000000000001 3.61721224855513 9.011405477700944 0 0 0
59 1 5.415000000000001 5.41303834095844 7.210859470715451 0 0 0
60 1 3.600037819056324 7.213605129546015 10.824672758409916 0 0 -1
61 1 3.6328573526147694 9.002199825966962 1.8018889630935495 0 0 0
62 1 5.415000000000001 7.198797872616312 1.8044750993562837 0 0 0
63 1 5.415 9.002358261623835 10.818449031179208 0 0 -1
64 1 3.6037606350071583 7.210345361770325 3.608945902133112 0 0 0
65 1 3.60502243047051 9.018172248561225 5.413964794571792 0 0 0
66 1 5.415 7.2108594707154525 5.41303834095844 0 0 0
67 1 5.415 9.01140547770094 3.6172122485551315 0 0 0
68 1 3.6013208621697017 7.214101653669359 7.214101653669359 0 0 0
69 1 3.6102852388062634 9.015070811549235 9.015070811549235 0 0 0
70 1 5.415 7.211216685874507 9.015739030235482 0 0 0
71 1 5.415 9.01573903023548 7.211216685874506 0 0 0
72 1 7.177945726339646 10.814837614868152 10.81483761486815 0 -1 -1
73 1 7.193666724389069 1.8037923160537928 1.8037923160537928 0 0 0
74 1 8.94431108480954 10.798662093935377 1.8005487068058135 0 -1 0
75 1 8.94431108480954 1.800548706805814 10.798662093935377 0 0 -1
76 1 7.208066322943463 10.826337901097233 3.6175519177859403 0 -1 0
77 1 7.23463846392432 1.8032322105339404 5.406797876536541 0 0 0
78 1 9.030360762126325 0.0018320007571459597 5.402897303556037 0 0 0
79 1 9.04995930966447 1.7898875239978567 3.5695171109680377 0 0 0
80 1 7.2299621809436765 10.824672758409914 7.213605129546017 0 -1 0
81 1 7.19714264738523 1.8018889630935504 9.002199825966962 0 0 0
82 1 9.023829142508044 10.825995508407878 9.035112333973421 0 -1 0
83 1 9.03414271903316 1.79822648519751 7.227582611782014 0 0 0
84 1 7.208066322943462 3.6175519177859368 10.826337901097231 0 0 -1
85 1 7.23463846392432 5.406797876536544 1.8032322105339413 0 0 0
86 1 9.049959309664471 3.5695171109680364 1.7898875239978553 0 0 0
87 1 9.030360762126328 5.402897303556037 0.0018320007571465406 0 0 0
88 1 7.232792945946524 3.604350678850983 3.6043506788509836 0 0 0
89 1 7.229717075649488 5.408974455156847 5.408974455156849 0 0 0
90 1 9.037014376752719 3.5975857878188138 5.406281561874811 0 0 0
91 1 9.03701437675272 5.4062815618748115 3.597585787818815 0 0 0
92 1 7.226239364992842 3.6089459021331143 7.210345361770327 0 0 0
93 1 7.224977569529492 5.413964794571792 9.018172248561223 0 0 0
94 1 9.024359375682211 3.606759386658571 9.024195349822689 0 0 0
95 1 9.035180253305517 5.408741199058098 7.215073278603741 0 0 0
96 1 7.2299621809436765 7.213605129546018 10.824672758409916 0 0 -1
97 1 7.197142647385232 9.002199825966958 1.8018889630935502 0 0 0
98 1 9.034142719033158 7.227582611782014 1.79822648519751 0 0 0
99 1 9.023829142508045 9.035112333973421 10.825995508407878 0 0 -1
100 1 7.226239364992842 7.210345361770327 3.608945902133111 0 0 0
101 1 7.224977569529492 9.018172248561225 5.413964794571792 0 0 0
102 1 9.03518025330552 7.21507327860374 5.408741199058098 0 0 0
103 1 9.024359375682211 9.024195349822689 3.606759386658571 0 0 0
104 1 7.228679137830299 7.214101653669358 7.214101653669359 0 0 0
105 1 7.219714761193738 9.015070811549235 9.015070811549235 0 0 0
106 1 9.033511259024877 7.214085306794873 9.02551357608768 0 0 0
107 1 9.033511259024877 9.025513576087683 7.214085306794874 0 0 0

Velocities

1 -1.9955861029877824e-14 0.00042784968847966163 0.0004278496884958792
2 -0.00010862557268376849 -3.3997837726549154e-05 -0.00011813941707636299
3 -0.00010862557268409027 -0.00011813941709263414 -3.399783774000476e-05
4 -2.5250217319337778e-14 -9.461791255411057e-05 -2.568022037403665e-05
5 4.009618551521753e-14 -8.447430936097148e-05 -9.539633652708759e-05
6 9.337899840378092e-06 -7.79475427065864e-05 -7.337148101436155e-05
7 3.6847438586310304e-05 -8.336368017188707e-05 -2.9181347924566084e-05
8 3.08905179490037e-15 -7.74010161292667e-05 -7.837176799387218e-05
9 -3.206488122447763e-14 -7.969702706361107e-05 -0.0001446583790097059
10 5.617709335320448e-06 -7.84228774358339e-05 -0.00010000340427695711
11 9.582013411804594e-06 -8.500066117474148e-05 -8.526017805540951e-05
12 -7.832755657369211e-15 -2.56802203939546e-05 -9.461791258547303e-05
13 1.6054921680773922e-14 -9.539633651814757e-05 -8.44743093261677e-05
14 3.684743859672379e-05 -2.9181347917749793e-05 -8.33636801670631e-05
15 9.33789986427132e-06 -7.337148105889671e-05 -7.794754269864388e-05
16 4.944914789422142e-14 -0.0001246810196342405 -0.0001246810196428051
17 -8.825188833121299e-15 -9.247981634529339e-05 -9.247981630734257e-05
18 -2.9698870922764977e-06 -6.918379261893192e-05 -9.028567201579652e-05
19 -2.96988705929611e-06 -9.028567199074893e-05 -6.918379260199443e-05
20 -3.003244800597582e-15 -6.82846585500881e-05 -7.751200104491242e-05
21 3.9581343549400794e-14 -7.568366375514293e-05 -9.368136120457558e-05
22 -3.7440673990057406e-06 -8.06568273975112e-05 -7.828265750234012e-05
23 -5.6099758019784445e-06 -8.761339736503162e-05 -7.202582875907468e-05
24 -7.910245470386013e-15 -7.837176796652388e-05 -7.740101610290117e-05
25 -4.183664457708878e-14 -0.00014465837904667798 -7.969702706738657e-05
26 9.582013415985004e-06 -8.526017802669635e-05 -8.500066115884071e-05
27 5.6177093366611825e-06 -0.00010000340430001104 -7.842287743722558e-05
28 -8.53934365406927e-15 -7.751200104139433e-05 -6.828465860513061e-05
29 -5.897597526276048e-15 -9.3681361116248e-05 -7.568366374945285e-05
30 -5.6099757148944e-06 -7.202582880045644e-05 -8.761339740496271e-05
31 -3.744067354151894e-06 -7.828265753424307e-05 -8.065682742138298e-05
32 1.1186011922342009e-14 -7.486050234059604e-05 -7.486050227149192e-05
33 1.5202067216346877e-15 -7.731021849532851e-05 -7.731021850659604e-05
34 3.425958256372024e-06 -7.061666849706616e-05 -8.739487145760992e-05
35 3.4259582775951775e-06 -8.739487141334826e-05 -7.06166684922583e-05
36 -1.5803989159165995e-05 -6.19332717138887e-05 -6.193327172785379e-05
37 -1.4101590441545299e-05 -8.982663334467121e-05 -8.982663334196828e-05
38 4.621298106110448e-14 -6.830773236982469e-05 -8.662581443979645e-05
39 -9.90877058236623e-16 -8.662581447024318e-05 -6.830773235302797e-05
40 -1.7065158380753418e-05 -7.71550024636387e-05 -9.161871274796891e-05
41 1.4964512963028644e-05 -8.485206129724258e-05 -7.73927484819741e-05
42 2.724372069113521e-15 -7.484729551962995e-05 -9.325034475189068e-05
43 -5.377936608452252e-15 -8.91325708522486e-05 -7.64443221991819e-05
44 9.558248581629667e-06 -7.226494370807517e-05 -7.005618113256364e-05
45 -1.793834816440639e-05 -8.185378713449005e-05 -6.32346428117329e-05
46 1.455226000552552e-15 -6.69676240125458e-05 -7.84611613235971e-05
47 1.2656531659661239e-15 -8.336017475669334e-05 -5.901108752320892e-05
48 -1.7065158390058116e-05 -9.161871272033905e-05 -7.715500245392038e-05
49 1.4964512961729474e-05 -7.739274850803529e-05 -8.485206130947142e-05
50 -1.4773952256508629e-15 -7.644432218014884e-05 -8.913257085972454e-05
51 2.2600850838116706e-14 -9.325034477523288e-05 -7.484729551716602e-05
52 1.0739464043798096e-05 -6.788121269894622e-05 -6.788121270296842e-05
53 -4.185825923874233e-06 -8.402182755662754e-05 -8.402182763431236e-05
54 2.5683896151336835e-15 -6.765202244188126e-05 -8.043020111432547e-05
55 1.5982835165132813e-15 -8.04302011022106e-05 -6.765202240117657e-05
56 -4.4551849992396015e-06 -7.32922572272022e-05 -6.947444925914371e-05
57 -1.9073140949687738e-06 -8.79466820699761e-05 -8.45349341987609e-05
58 -2.429135282547847e-14 -7.511965490123786e-05 -8.148412635526632e-05
59 -2.6054582358803928e-14 -8.532043007835333e-05 -7.234930127903466e-05
60 9.558248595628274e-06 -7.005618109909607e-05 -7.226494369202926e-05
61 -1.793834817658294e-05 -6.323464282091425e-05 -8.185378713304843e-05
62 -1.8739536094491245e-14 -5.9011087511690665e-05 -8.33601748025136e-05
63 3.592556450158603e-15 -7.846116132514985e-05 -6.696762397518188e-05
64 -4.455185070191093e-06 -6.947444930001532e-05 -7.329225717996679e-05
65 -1.9073141308179977e-06 -8.45349341919942e-05 -8.79466820624519e-05
66 -6.864559544223045e-16 -7.234930132895622e-05 -8.5320430085659e-05
67 5.27804251087564e-15 -8.148412628691267e-05 -7.511965493139767e-05
68 -2.5327320144722215e-06 -7.368301764972842e-05 -7.368301764644429e-05
69 8.745131314680934e-06 -8.564095401858597e-05 -8.564095402052636e-05
70 4.112696548769246e-15 -7.537366946140685e-05 -8.76808121134993e-05
71 5.0738906371510004e-15 -8.768081208403232e-05 -7.537366944041028e-05
72 1.580398913605978e-05 -6.193327172418554e-05 -6.193327168449712e-05
73 1.4101590414609948e-05 -8.982663335631147e-05 -8.982663334984913e-05
74 0.00010862557271380094 -3.399783773578949e-05 -0.0001181394170742929
75 0.00010862557272795909 -0.00011813941708383892 -3.399783774067513e-05
76 1.7065158369174837e-05 -7.715500248824385e-05 -9.161871278314977e-05
77 -1.4964512963064845e-05 -8.485206128112965e-05 -7.73927484377044e-05
78 -9.337899832801603e-06 -7.794754271060189e-05 -7.33714810368041e-05
79 -3.684743859537635e-05 -8.336368022668959e-05 -2.918134794926308e-05
80 -9.558248607497123e-06 -7.226494366808375e-05 -7.00561811337554e-05
81 1.7938348178910454e-05 -8.185378714681509e-05 -6.3234642819359e-05
82 -5.617709306403491e-06 -7.842287739246115e-05 -0.00010000340430524527
83 -9.582013431656846e-06 -8.500066116528461e-05 -8.526017802680629e-05
84 1.7065158393479668e-05 -9.161871269496163e-05 -7.715500244494215e-05
85 -1.4964512954215998e-05 -7.739274850998606e-05 -8.485206131496575e-05
86 -3.684743862923257e-05 -2.9181347926597967e-05 -8.336368020537994e-05
87 -9.3378999105052e-06 -7.337148104631392e-05 -7.794754270971968e-05
88 -1.0739464046862344e-05 -6.788121267238091e-05 -6.788121269391578e-05
89 4.185826001536602e-06 -8.402182757979274e-05 -8.402182763184138e-05
90 2.9698870310230404e-06 -6.918379254481681e-05 -9.02856719509747e-05
91 2.9698870082597185e-06 -9.028567197245863e-05 -6.91837925669235e-05
92 4.455185060582217e-06 -7.329225723442608e-05 -6.947444933789174e-05
93 1.9073140862721009e-06 -8.794668205231059e-05 -8.453493414198448e-05
94 3.7440674111042756e-06 -8.065682743556394e-05 -7.828265749752907e-05
95 5.6099757589589734e-06 -8.761339740569744e-05 -7.202582884815976e-05
96 -9.558248599023683e-06 -7.005618115379636e-05 -7.22649437123367e-05
97 1.7938348145703147e-05 -6.323464273610744e-05 -8.185378714746333e-05
98 -9.582013374116553e-06 -8.526017802701813e-05 -8.500066115905153e-05
99 -5.6177093273028576e-06 -0.00010000340430528817 -7.842287739559578e-05
100 4.455185068574502e-06 -6.947444934814835e-05 -7.329225715254342e-05
101 1.907314095293902e-06 -8.453493419573553e-05 -8.794668205617726e-05
102 5.6099757074265105e-06 -7.202582883003572e-05 -8.76133974054628e-05
103 3.7440674157378533e-06 -7.828265750719342e-05 -8.065682743149078e-05
104 2.532732011891308e-06 -7.36830176326106e-05 -7.368301765337052e-05
105 -8.74513134099184e-06 -8.564095402813703e-05 -8.564095402357988e-05
106 -3.4259582659328006e-06 -7.06166684753751e-05 -8.739487142262346e-05
107 -3.425958256641512e-06 -8.73948714446906e-05 -7.061666848910957e-05
