LAMMPS data file via write_data, version 23 Jun 2022, timestep = 48

107 atoms
1 atom types

0 10.83 xlo xhi
0 10.83 ylo yhi
0 10.83 zlo zhi

Masses

1 63.546

Atoms # atomic

1 1 10.829999999999997 1.2203473863273075 1.2203473863273075 -1 0 0
2 1 1.9372758972907125 10.788340885425082 1.825309436271727 0 -1 0
3 1 1.9372758972907125 1.8253094362717264 10.788340885425082 0 0 -1
4 1 0 0.03155445415907314 3.5559085748964345 0 0 0
5 1 0 1.7978401495434446 5.417346450042693 0 0 0
6 1 1.795120614119343 0.004737615388889464 5.399880762795696 0 0 0
7 1 1.784012951306673 1.7935976753777017 3.5678570270071543 0 0 0
8 1 0 0.005794638125897473 7.221330703732614 0 0 0
9 1 0 1.758702598398599 9.117358437856394 0 0 0
10 1 1.80993383665323 10.829773259451958 9.03933254326606 0 -1 0
11 1 1.7923738104072073 1.7994191453658543 7.235114369126965 0 0 0
12 1 10.829999999999998 3.5559085748964336 0.03155445415907074 -1 0 0
13 1 4.276336772613832e-16 5.417346450042696 1.7978401495434435 0 0 0
14 1 1.7840129513066747 3.567857027007154 1.7935976753777028 0 0 0
15 1 1.7951206141193432 5.399880762795697 0.004737615388890217 0 0 0
16 1 3.9600761110997333e-16 3.5960260499512335 3.5960260499512353 0 0 0
17 1 0 5.408543618134405 5.408543618134406 0 0 0
18 1 1.7937865638674564 3.5993098554351914 5.41294136575088 0 0 0
19 1 1.7937865638674575 5.41294136575088 3.5993098554351906 0 0 0
20 1 0 3.5875511140854175 7.241131802932052 0 0 0
21 1 2.879315263185521e-16 5.397118875359777 9.039228976765811 0 0 0
22 1 1.805480065239471 3.610112295327401 9.023861570424517 0 0 0
23 1 1.7926753882042765 5.411381892367263 7.2179685164632446 0 0 0
24 1 1.8586819836618163e-16 7.221330703732612 0.005794638125900116 0 0 0
25 1 10.829999999999998 9.117358437856392 1.7587025983985989 -1 0 0
26 1 1.7923738104072067 7.235114369126963 1.7994191453658535 0 0 0
27 1 1.8099338366532307 9.03933254326606 10.829773259451958 0 0 -1
28 1 0 7.241131802932053 3.5875511140854166 0 0 0
29 1 2.378391077053172e-16 9.039228976765813 5.397118875359777 0 0 0
30 1 1.7926753882042774 7.2179685164632446 5.411381892367263 0 0 0
31 1 1.805480065239471 9.023861570424517 3.610112295327402 0 0 0
32 1 4.3672772351898954e-16 7.2264220979746385 7.226422097974641 0 0 0
33 1 10.829999999999998 9.045184255704891 9.045184255704887 -1 0 0
34 1 1.7941047395713037 7.215209167110098 9.028399280841093 0 0 0
35 1 1.7941047395713041 9.028399280841095 7.215209167110099 0 0 0
36 1 3.6535174966340263 10.81570650181644 10.81570650181644 0 -1 -1
37 1 3.6447447977496985 1.8097227411453636 1.8097227411453634 0 0 0
38 1 5.415000000000001 10.819767476501063 1.8116870485065657 0 -1 0
39 1 5.415 1.8116870485065666 10.819767476501063 0 0 -1
40 1 3.6325858460334053 10.828685140533716 3.6296918298397087 0 -1 0
41 1 3.5932664095018505 1.8061945552148935 5.411250444288087 0 0 0
42 1 5.415 10.826857433325237 5.426208300076873 0 -1 0
43 1 5.415 1.8130268886058107 3.624390106043297 0 0 0
44 1 3.5982788653457742 10.825319092697825 7.213106258676733 0 -1 0
45 1 3.639635601916517 1.803043234894323 8.99621326410401 0 0 0
46 1 5.415 10.817865963585842 9.002552316072844 0 -1 0
47 1 5.415 1.8063900548709617 7.198036961238132 0 0 0
48 1 3.632585846033407 3.629691829839709 10.828685140533716 0 0 -1
49 1 3.593266409501849 5.411250444288086 1.806194555214894 0 0 0
50 1 5.415 3.624390106043297 1.8130268886058105 0 0 0
51 1 5.415 5.426208300076871 10.826857433325236 0 0 -1
52 1 3.599639335644579 3.609830981922005 3.6098309819220042 0 0 0
53 1 3.599279839203929 5.412240596368123 5.412240596368123 0 0 0
54 1 5.415 3.612876555475571 5.412608933450156 0 0 0
55 1 5.415000000000001 5.412608933450156 3.612876555475572 0 0 0
56 1 3.6034063965455867 3.6120741326717956 7.212124468136284 0 0 0
57 1 3.603749157786792 5.417160342953528 9.018874292189697 0 0 0
58 1 5.415 3.621332342847926 9.010409841225616 0 0 0
59 1 5.415 5.416220016931667 7.212608187109222 0 0 0
60 1 3.5982788653457742 7.213106258676733 10.825319092697825 0 0 -1
61 1 3.639635601916517 8.99621326410401 1.8030432348943228 0 0 0
62 1 5.415 7.1980369612381345 1.806390054870962 0 0 0
63 1 5.415 9.002552316072842 10.817865963585843 0 0 -1
64 1 3.603406396545587 7.212124468136284 3.612074132671796 0 0 0
65 1 3.6037491577867917 9.018874292189697 5.417160342953529 0 0 0
66 1 5.415 7.212608187109221 5.416220016931666 0 0 0
67 1 5.415 9.010409841225615 3.621332342847926 0 0 0
68 1 3.5997242960733518 7.21614504255785 7.21614504255785 0 0 0
69 1 3.609694250851548 9.015495402657214 9.015495402657214 0 0 0
70 1 5.415 7.21310130533408 9.016391891818598 0 0 0
71 1 5.415 9.016391891818598 7.21310130533408 0 0 0
72 1 7.176482503365973 10.81570650181644 10.81570650181644 0 -1 -1
73 1 7.1852552022503 1.809722741145364 1.8097227411453634 0 0 0
74 1 8.892724102709291 10.788340885425082 1.8253094362717255 0 -1 0
75 1 8.892724102709291 1.8253094362717273 10.788340885425084 0 0 -1
76 1 7.197414153966593 10.828685140533716 3.6296918298397087 0 -1 0
77 1 7.23673359049815 1.8061945552148948 5.411250444288089 0 0 0
78 1 9.034879385880657 0.004737615388890684 5.399880762795697 0 0 0
79 1 9.045987048693327 1.7935976753777014 3.567857027007155 0 0 0
80 1 7.231721134654226 10.825319092697827 7.213106258676731 0 -1 0
81 1 7.190364398083482 1.803043234894323 8.996213264104012 0 0 0
82 1 9.02006616334677 10.829773259451956 9.03933254326606 0 -1 0
83 1 9.037626189592793 1.799419145365854 7.235114369126963 0 0 0
84 1 7.197414153966593 3.629691829839709 10.828685140533716 0 0 -1
85 1 7.23673359049815 5.411250444288085 1.8061945552148944 0 0 0
86 1 9.045987048693325 3.5678570270071543 1.7935976753777008 0 0 0
87 1 9.034879385880657 5.3998807627956955 0.004737615388890692 0 0 0
88 1 7.230360664355421 3.609830981922006 3.6098309819220042 0 0 0
89 1 7.230720160796072 5.412240596368123 5.412240596368121 0 0 0
90 1 9.036213436132542 3.5993098554351914 5.41294136575088 0 0 0
91 1 9.036213436132542 5.41294136575088 3.5993098554351923 0 0 0
92 1 7.226593603454413 3.6120741326717942 7.212124468136281 0 0 0
93 1 7.226250842213206 5.4171603429535296 9.018874292189698 0 0 0
94 1 9.02451993476053 3.610112295327401 9.023861570424518 0 0 0
95 1 9.037324611795723 5.411381892367264 7.217968516463244 0 0 0
96 1 7.231721134654226 7.213106258676733 10.825319092697825 0 0 -1
97 1 7.190364398083482 8.996213264104012 1.8030432348943222 0 0 0
98 1 9.037626189592794 7.235114369126965 1.7994191453658548 0 0 0
99 1 9.020066163346769 9.03933254326606 10.829773259451958 0 0 -1
100 1 7.226593603454414 7.212124468136283 3.6120741326717973 0 0 0
101 1 7.226250842213207 9.018874292189697 5.417160342953529 0 0 0
102 1 9.037324611795722 7.217968516463244 5.411381892367262 0 0 0
103 1 9.02451993476053 9.023861570424515 3.6101122953274007 0 0 0
104 1 7.230275703926648 7.21614504255785 7.21614504255785 0 0 0
105 1 7.2203057491484515 9.015495402657214 9.015495402657214 0 0 0
106 1 9.035895260428696 7.215209167110099 9.028399280841093 0 0 0
107 1 9.035895260428697 9.028399280841093 7.215209167110101 0 0 0

Velocities

1 7.637520787458743e-14 0.00017631297935511814 0.00017631297935537555
2 -2.155911501312674e-05 -2.9484967192543392e-05 -5.734269532419216e-05
3 -2.1559115002143443e-05 -5.734269531092694e-05 -2.9484967185550122e-05
4 2.402595840478066e-15 -4.683083234717216e-05 -1.8919269253362793e-05
5 2.1490175290691603e-15 -3.84609122003061e-05 -3.404223508755711e-05
6 3.0524189418888067e-06 -3.480799566742163e-05 -3.602898219859465e-05
7 -1.0548743177103738e-05 -4.094911658130286e-05 -4.7791756570668856e-05
8 3.756408575845831e-15 -3.692169739534299e-05 -3.610935460891398e-05
9 1.458718903147397e-15 -3.21766568565446e-05 -4.809450325729643e-05
10 8.14975010517782e-07 -3.578852758042436e-05 -3.3237073650138316e-05
11 3.0789804494058145e-06 -3.920186631426619e-05 -3.807555091941679e-05
12 3.9986059345099236e-14 -1.891926922394172e-05 -4.6830832298369436e-05
13 -9.420977423416295e-15 -3.4042235157410705e-05 -3.846091217165e-05
14 -1.0548743212048636e-05 -4.77917565638472e-05 -4.0949116601657885e-05
15 3.05241894213215e-06 -3.602898222951399e-05 -3.4807995691410405e-05
16 -1.482696247415472e-14 -4.536347636242473e-05 -4.536347640659924e-05
17 -4.165113089931874e-16 -4.0249423850074e-05 -4.024942387307732e-05
18 -4.21699296739221e-06 -4.099320857248474e-05 -4.199626929689541e-05
19 -4.216992991373589e-06 -4.1996269295526514e-05 -4.099320855197284e-05
20 -7.787446051007905e-15 -4.0296505143912216e-05 -3.649685760077345e-05
21 -5.5089099524328516e-15 -3.558134482854881e-05 -3.597163557658905e-05
22 -1.1891910212320253e-06 -4.266220468677641e-05 -3.068223650080215e-05
23 -7.512119631536209e-06 -3.9821426468429056e-05 -3.567999751158298e-05
24 -5.458289084317539e-15 -3.610935455445804e-05 -3.692169746878172e-05
25 3.5180867664143103e-14 -4.809450323117557e-05 -3.217665684369768e-05
26 3.078980467468187e-06 -3.8075550884137044e-05 -3.920186629433585e-05
27 8.149749903303459e-07 -3.323707366175578e-05 -3.578852758590662e-05
28 6.950366538525833e-15 -3.649685761618117e-05 -4.0296505117170735e-05
29 -9.650736961109552e-15 -3.59716356121346e-05 -3.5581344821430846e-05
30 -7.5121196563129784e-06 -3.5679997511220314e-05 -3.982142646287573e-05
31 -1.1891910253507611e-06 -3.068223651310741e-05 -4.266220470819783e-05
32 -2.0913090426592073e-15 -3.4490728577654096e-05 -3.449072862486235e-05
33 3.508807772473426e-14 -3.256352451273608e-05 -3.256352442321123e-05
34 -2.5471869844285997e-06 -3.481024914289942e-05 -3.4625482795357866e-05
35 -2.547186988371699e-06 -3.4625482826552056e-05 -3.481024916057231e-05
36 1.2225152267868903e-05 -3.8966475086342085e-05 -3.896647508421501e-05
37 4.691821957513255e-06 -3.8219997585924465e-05 -3.821999758330601e-05
38 -2.3260035413063174e-14 -3.9100553470525055e-05 -3.3867419357757795e-05
39 -9.616415915333398e-15 -3.386741937600854e-05 -3.910055346874456e-05
40 -4.78359299971456e-06 -3.747576059837078e-05 -4.2016169736607845e-05
41 -4.502842676062545e-07 -3.674133807333944e-05 -3.957390587810702e-05
42 -4.004242581920521e-15 -3.9013098934401355e-05 -3.8670554574722584e-05
43 2.9365651129438225e-17 -3.584400126428891e-05 -3.324353645656756e-05
44 9.500596125860691e-07 -3.778234549977436e-05 -3.700412934996489e-05
45 1.7072974838836138e-07 -3.579451105141813e-05 -3.515711149886665e-05
46 1.6239877750409336e-15 -3.864127658121084e-05 -4.390585908679791e-05
47 -4.787231404933461e-15 -3.432776802710105e-05 -3.898496150045439e-05
48 -4.783593036549894e-06 -4.201616974465493e-05 -3.747576059734579e-05
49 -4.5028422932024624e-07 -3.957390585865833e-05 -3.674133808505008e-05
50 -9.17058358091221e-15 -3.324353645665337e-05 -3.5844001260648145e-05
51 -7.40085325861547e-15 -3.8670554534308827e-05 -3.901309889528035e-05
52 -3.8801242577940296e-06 -3.7537243520745205e-05 -3.753724349837505e-05
53 -8.089229088358868e-06 -3.6909212005207906e-05 -3.690921200359098e-05
54 -3.905612146267146e-15 -3.247694732928745e-05 -3.577003624195323e-05
55 -1.9728168248083297e-14 -3.5770036233015894e-05 -3.247694736029059e-05
56 -4.819340229300831e-06 -3.564741597685936e-05 -3.767762380009901e-05
57 -4.401717728010871e-06 -3.799840738633685e-05 -3.870642825798368e-05
58 5.796438850160223e-15 -3.338030579781065e-05 -4.011387778817931e-05
59 7.079077029980015e-15 -3.630852217936456e-05 -3.952853290148455e-05
60 9.50059612992144e-07 -3.7004129356336054e-05 -3.778234550114727e-05
61 1.7072974119465157e-07 -3.515711149581346e-05 -3.579451104506339e-05
62 6.474936597307472e-15 -3.8984961566071265e-05 -3.432776802147901e-05
63 -5.635645640038785e-15 -4.390585906104073e-05 -3.864127660428186e-05
64 -4.819340235852832e-06 -3.767762380045766e-05 -3.564741598547358e-05
65 -4.401717710398985e-06 -3.8706428255441646e-05 -3.7998407395640875e-05
66 -4.1761080271548646e-15 -3.952853288992072e-05 -3.630852215709765e-05
67 -2.636988846382866e-15 -4.011387774499677e-05 -3.338030578955575e-05
68 -7.5759944681795445e-06 -3.915190620589878e-05 -3.9151906205232434e-05
69 9.30035436732793e-07 -3.973611903908387e-05 -3.973611903643558e-05
70 -5.6206584184321315e-15 -4.148645695912098e-05 -4.279612819358596e-05
71 -2.064445212775013e-15 -4.279612819375758e-05 -4.14864569644437e-05
72 -1.2225152249367775e-05 -3.8966475073417406e-05 -3.896647508590232e-05
73 -4.69182192136974e-06 -3.8219997597272444e-05 -3.821999758045293e-05
74 2.1559114925528524e-05 -2.948496720110197e-05 -5.734269528313352e-05
75 2.1559114917661095e-05 -5.734269532783628e-05 -2.948496723398817e-05
76 4.783593047250294e-06 -3.747576059569954e-05 -4.201616973605948e-05
77 4.502842547486127e-07 -3.6741338094227405e-05 -3.9573905918754064e-05
78 -3.0524189514690233e-06 -3.480799570231923e-05 -3.6028982217906586e-05
79 1.0548743168040373e-05 -4.0949116572362844e-05 -4.7791756591444874e-05
80 -9.500596095239996e-07 -3.7782345526902526e-05 -3.7004129317959546e-05
81 -1.7072972487556904e-07 -3.579451105290568e-05 -3.5157111521723316e-05
82 -8.149750309190652e-07 -3.578852753808665e-05 -3.323707365140263e-05
83 -3.0789804457313644e-06 -3.920186630247963e-05 -3.807555087919577e-05
84 4.783593040704829e-06 -4.2016169747032056e-05 -3.747576059633454e-05
85 4.502842489888182e-07 -3.957390583806867e-05 -3.67413380921305e-05
86 1.0548743206819771e-05 -4.779175657340395e-05 -4.094911655106126e-05
87 -3.052418954472268e-06 -3.602898219069336e-05 -3.480799569207675e-05
88 3.880124266224566e-06 -3.7537243544578097e-05 -3.753724350407854e-05
89 8.089229062550403e-06 -3.6909212006299264e-05 -3.6909211970503665e-05
90 4.2169929994384405e-06 -4.0993208569271e-05 -4.199626929943476e-05
91 4.216993015827577e-06 -4.199626930097928e-05 -4.099320859047203e-05
92 4.819340239123051e-06 -3.5647415949261016e-05 -3.767762374327199e-05
93 4.401717752503405e-06 -3.799840741935578e-05 -3.8706428285643365e-05
94 1.1891909907338398e-06 -4.266220468302587e-05 -3.0682236545586404e-05
95 7.51211962293875e-06 -3.9821426486543717e-05 -3.5679997491292976e-05
96 -9.50059606760411e-07 -3.700412935680632e-05 -3.778234548667706e-05
97 -1.707297248249563e-07 -3.5157111521970683e-05 -3.5794511028096734e-05
98 -3.078980494119638e-06 -3.807555092154554e-05 -3.9201866318178625e-05
99 -8.149749951590004e-07 -3.323707366976532e-05 -3.5788527588541834e-05
100 4.819340220248864e-06 -3.7677623776009366e-05 -3.56474160169024e-05
101 4.401717741080349e-06 -3.8706428246761564e-05 -3.799840739357011e-05
102 7.512119673042661e-06 -3.567999748678409e-05 -3.9821426444813364e-05
103 1.189191000165738e-06 -3.068223647304359e-05 -4.266220467825822e-05
104 7.5759944658272265e-06 -3.915190620861846e-05 -3.915190620881823e-05
105 -9.300354359127664e-07 -3.973611903199943e-05 -3.9736119043786825e-05
106 2.547186988588898e-06 -3.4810249170590276e-05 -3.462548278597809e-05
107 2.547186958048982e-06 -3.462548280562789e-05 -3.481024920010051e-05
