LAMMPS data file via write_data, version 23 Jun 2022, timestep = 48

107 atoms
1 atom types

0 10.83 xlo xhi
0 10.83 ylo yhi
0 10.83 zlo zhi

Masses

1 63.546

Atoms # atomic

1 1 5.58371855526975e-17 0.5846526136726912 0.5846526136726914 0 0 0
2 1 1.9372758972907107 10.809690563728273 1.8466591145749172 0 -1 0
3 1 1.9372758972907125 1.8466591145749176 10.809690563728273 0 0 -1
4 1 6.081911555844986e-16 0.04629740160140165 3.5176415621436075 0 0 0
5 1 5.385487921848871e-16 1.7992053618741004 5.413669296267388 0 0 0
6 1 1.792373810407207 0.005580854634146455 5.399885630873036 0 0 0
7 1 1.80993383665323 1.8052267405480413 3.5956674567339415 0 0 0
8 1 0 0.007159850456555627 7.217653549957306 0 0 0
9 1 0 1.7734455458409268 9.079091425103565 0 0 0
10 1 1.7840129513066743 0.011402324622299518 9.067142972992846 0 0 0
11 1 1.795120614119342 1.800262384611109 7.235119237204303 0 0 0
12 1 2.688577256988924e-16 3.517641562143608 0.04629740160140175 0 0 0
13 1 1.5629157458420457e-16 5.413669296267388 1.799205361874101 0 0 0
14 1 1.8099338366532298 3.595667456733941 1.8052267405480413 0 0 0
15 1 1.7923738104072067 5.399885630873035 0.005580854634147108 0 0 0
16 1 1.2697565925457458e-16 3.589815744295112 3.589815744295111 0 0 0
17 1 0 5.40857790202536 5.4085779020253595 0 0 0
18 1 1.794104739571303 3.606600719158907 5.419790832889901 0 0 0
19 1 1.7941047395713035 5.419790832889901 3.606600719158907 0 0 0
20 1 1.69604307092523e-17 3.5957710232341897 7.237881124640223 0 0 0
21 1 0 5.393868197067947 9.04744888591458 0 0 0
22 1 1.8054800652394707 3.611138429575484 9.024887704672597 0 0 0
23 1 1.7926753882042779 5.4170314835367535 7.2236181076327375 0 0 0
24 1 5.958707010706917e-16 7.217653549957307 0.0071598504565562665 0 0 0
25 1 3.6218919363745048e-16 9.079091425103565 1.7734455458409273 0 0 0
26 1 1.7951206141193417 7.2351192372043025 1.8002623846111092 0 0 0
27 1 1.7840129513066736 9.067142972992846 0.011402324622299205 0 0 0
28 1 0 7.237881124640223 3.595771023234189 0 0 0
29 1 0 9.047448885914582 5.393868197067949 0 0 0
30 1 1.7926753882042776 7.2236181076327375 5.417031483536754 0 0 0
31 1 1.8054800652394707 9.024887704672599 3.611138429575484 0 0 0
32 1 0 7.226456381865596 7.226456381865595 0 0 0
33 1 0 9.038973950048764 9.038973950048764 0 0 0
34 1 1.7937865638674568 7.2220586342491195 9.035690144564809 0 0 0
35 1 1.793786563867457 9.035690144564809 7.222058634249119 0 0 0
36 1 3.6447447977496985 10.825277258854635 10.825277258854635 0 -1 -1
37 1 3.6535174966340263 1.8192934981835616 1.8192934981835605 0 0 0
38 1 5.414999999999999 10.823312951493433 1.8152325234989386 0 -1 0
39 1 5.414999999999999 1.8152325234989386 10.823312951493433 0 0 -1
40 1 3.639635601916517 0.001956765105677826 3.638786735895988 0 0 0
41 1 3.5982788653457747 1.8096809073021745 5.421893741323267 0 0 0
42 1 5.415 10.82860994512904 5.436963038761868 0 -1 0
43 1 5.414999999999999 1.817134036414157 3.632447683927157 0 0 0
44 1 3.59326640950185 10.828805444785106 7.223749555711914 0 -1 0
45 1 3.632585846033407 1.806314859466283 9.005308170160292 0 0 0
46 1 5.414999999999998 10.82197311139419 9.010609893956703 0 -1 0
47 1 5.415 1.8081425666747633 7.208791699923127 0 0 0
48 1 3.639635601916516 3.6387867358959864 0.0019567651056788707 0 0 0
49 1 3.598278865345774 5.4218937413232675 1.8096809073021742 0 0 0
50 1 5.414999999999999 3.632447683927157 1.8171340364141577 0 0 0
51 1 5.415 5.436963038761868 10.828609945129038 0 0 -1
52 1 3.609694250851548 3.6195045973427855 3.619504597342786 0 0 0
53 1 3.5997242960733513 5.41885495744215 5.41885495744215 0 0 0
54 1 5.415 3.618608108181401 5.421898694665921 0 0 0
55 1 5.415000000000001 5.42189869466592 3.6186081081814017 0 0 0
56 1 3.6037491577867926 3.616125707810304 7.217839657046472 0 0 0
57 1 3.6034063965455876 5.422875531863718 9.022925867328203 0 0 0
58 1 5.415 3.624590158774384 9.013667657152073 0 0 0
59 1 5.415 5.422391812890779 7.218779983068335 0 0 0
60 1 3.5932664095018505 7.223749555711913 10.828805444785106 0 0 -1
61 1 3.632585846033408 9.005308170160292 1.8063148594662837 0 0 0
62 1 5.415000000000001 7.20879169992313 1.8081425666747633 0 0 0
63 1 5.415 9.010609893956703 10.82197311139419 0 0 -1
64 1 3.603749157786792 7.217839657046473 3.6161257078103035 0 0 0
65 1 3.603406396545586 9.022925867328203 5.422875531863718 0 0 0
66 1 5.415 7.218779983068335 5.422391812890779 0 0 0
67 1 5.414999999999999 9.013667657152073 3.624590158774383 0 0 0
68 1 3.59927983920393 7.222759403631878 7.222759403631878 0 0 0
69 1 3.5996393356445804 9.025169018077996 9.025169018077996 0 0 0
70 1 5.414999999999998 7.222391066549845 9.022123444524428 0 0 0
71 1 5.414999999999999 9.022123444524428 7.222391066549844 0 0 0
72 1 7.185255202250303 10.825277258854635 10.825277258854637 0 -1 -1
73 1 7.176482503365976 1.8192934981835593 1.8192934981835605 0 0 0
74 1 8.892724102709286 10.809690563728275 1.8466591145749172 0 -1 0
75 1 8.892724102709288 1.8466591145749167 10.809690563728273 0 0 -1
76 1 7.190364398083483 0.0019567651056782843 3.638786735895987 0 0 0
77 1 7.231721134654226 1.809680907302175 5.421893741323268 0 0 0
78 1 9.037626189592793 0.005580854634146851 5.399885630873037 0 0 0
79 1 9.020066163346769 1.805226740548042 3.59566745673394 0 0 0
80 1 7.23673359049815 10.828805444785107 7.223749555711912 0 -1 0
81 1 7.1974141539665935 1.8063148594662841 9.005308170160292 0 0 0
82 1 9.045987048693325 0.011402324622299334 9.067142972992846 0 0 0
83 1 9.034879385880657 1.800262384611109 7.2351192372043025 0 0 0
84 1 7.190364398083484 3.6387867358959882 0.001956765105677687 0 0 0
85 1 7.231721134654226 5.421893741323267 1.8096809073021738 0 0 0
86 1 9.020066163346769 3.595667456733941 1.8052267405480418 0 0 0
87 1 9.03762618959279 5.399885630873035 0.005580854634147009 0 0 0
88 1 7.2203057491484515 3.6195045973427864 3.619504597342786 0 0 0
89 1 7.230275703926648 5.41885495744215 5.41885495744215 0 0 0
90 1 9.035895260428696 3.6066007191589065 5.419790832889901 0 0 0
91 1 9.035895260428697 5.419790832889901 3.606600719158907 0 0 0
92 1 7.226250842213207 3.616125707810303 7.217839657046472 0 0 0
93 1 7.226593603454413 5.422875531863716 9.022925867328203 0 0 0
94 1 9.02451993476053 3.6111384295754836 9.024887704672599 0 0 0
95 1 9.037324611795723 5.417031483536754 7.223618107632737 0 0 0
96 1 7.236733590498151 7.2237495557119145 10.828805444785107 0 0 -1
97 1 7.197414153966593 9.00530817016029 1.806314859466283 0 0 0
98 1 9.034879385880657 7.235119237204303 1.800262384611109 0 0 0
99 1 9.045987048693325 9.067142972992846 0.011402324622298204 0 0 0
100 1 7.226250842213207 7.217839657046472 3.616125707810303 0 0 0
101 1 7.226593603454413 9.022925867328203 5.422875531863718 0 0 0
102 1 9.037324611795723 7.223618107632737 5.417031483536754 0 0 0
103 1 9.02451993476053 9.024887704672597 3.6111384295754827 0 0 0
104 1 7.23072016079607 7.222759403631877 7.222759403631877 0 0 0
105 1 7.2303606643554215 9.025169018077994 9.025169018077998 0 0 0
106 1 9.036213436132543 7.22205863424912 9.035690144564809 0 0 0
107 1 9.036213436132545 9.035690144564809 7.222058634249119 0 0 0

Velocities

1 -1.6453994070817087e-14 -0.0001763129793510852 -0.0001763129793522007
2 -2.1559114962286095e-05 5.734269532405005e-05 2.9484967202157128e-05
3 -2.1559115003843496e-05 2.9484967195894556e-05 5.734269532044615e-05
4 -2.2985466900461083e-14 3.217665682393526e-05 4.809450322513255e-05
5 -1.1224680759166972e-14 3.692169745067208e-05 3.610935456702106e-05
6 3.078980463317441e-06 3.9201866291185955e-05 3.8075550909013365e-05
7 8.149750076204552e-07 3.578852760250759e-05 3.3237073639360154e-05
8 1.2680057410649704e-15 3.846091218042629e-05 3.404223512344186e-05
9 -1.458718903147397e-15 4.683083234877568e-05 1.8919269262474425e-05
10 -1.0548743201891232e-05 4.094911654860503e-05 4.7791756570245184e-05
11 3.0524189606302606e-06 3.480799570198576e-05 3.602898221041959e-05
12 -8.402102496567158e-15 4.8094503222622695e-05 3.2176656826553716e-05
13 -1.0110941020526483e-14 3.6109354570099385e-05 3.692169743499286e-05
14 8.149750046493881e-07 3.323707364442813e-05 3.578852760435177e-05
15 3.0789804614774507e-06 3.807555091481338e-05 3.9201866274033436e-05
16 -5.1371720696434824e-15 3.2563524445656465e-05 3.256352446370677e-05
17 3.873838406146214e-15 3.449072860526987e-05 3.449072861803768e-05
18 -2.5471869702067606e-06 3.46254827951172e-05 3.4810249168932124e-05
19 -2.5471869750662518e-06 3.48102491675381e-05 3.462548279507899e-05
20 -3.689944785095404e-15 3.597163555893024e-05 3.558134480634223e-05
21 -2.0593678632669134e-15 3.64968576323169e-05 4.029650518375067e-05
22 -1.1891910128234426e-06 3.068223649359972e-05 4.266220471535215e-05
23 -7.512119653469951e-06 3.5679997550628515e-05 3.9821426442478474e-05
24 -1.2578750812217481e-14 3.404223509442703e-05 3.846091216443401e-05
25 -1.6811187938240386e-14 1.891926926485557e-05 4.683083234354682e-05
26 3.0524189719152213e-06 3.6028982231233484e-05 3.480799569953119e-05
27 -1.0548743183496358e-05 4.779175656993413e-05 4.094911655535563e-05
28 3.003244800597582e-15 3.558134482082618e-05 3.5971635578161734e-05
29 -1.458718903147397e-15 4.0296505153782575e-05 3.6496857591471433e-05
30 -7.5121196512865655e-06 3.982142644458477e-05 3.56799975330897e-05
31 -1.1891910173604876e-06 4.26622046931087e-05 3.0682236492024154e-05
32 6.4355245727091046e-15 4.024942382835679e-05 4.0249423844904466e-05
33 3.551375173455569e-15 4.5363476419228964e-05 4.536347641088691e-05
34 -4.216992973285407e-06 4.19962692945699e-05 4.099320857110311e-05
35 -4.216992979289216e-06 4.09932085711983e-05 4.19962693147017e-05
36 4.6918219534548525e-06 3.8219997608037196e-05 3.821999761567402e-05
37 1.2225152257695745e-05 3.896647505306305e-05 3.896647507946143e-05
38 1.382085987667008e-14 3.386741939276806e-05 3.910055343011498e-05
39 2.09010359746309e-14 3.910055343421294e-05 3.3867419391051916e-05
40 1.707297419836737e-07 3.579451102935367e-05 3.5157111526160854e-05
41 9.500595998951812e-07 3.7782345509967626e-05 3.7004129361024605e-05
42 -3.328512501786074e-15 3.432776798675635e-05 3.898496150183534e-05
43 2.064230892884213e-14 3.8641276604345716e-05 4.3905859067272126e-05
44 -4.502842596657557e-07 3.6741338090614125e-05 3.957390586765332e-05
45 -4.783593030662729e-06 3.747576060693673e-05 4.2016169711887385e-05
46 3.960057842564698e-14 3.584400126124075e-05 3.3243536462619634e-05
47 -6.417564296686444e-15 3.901309892374455e-05 3.86705545795385e-05
48 1.7072976057429532e-07 3.5157111554969054e-05 3.579451101426103e-05
49 9.500596237460061e-07 3.700412935212917e-05 3.77823455156086e-05
50 2.2485597031925136e-14 4.3905859069718296e-05 3.8641276586849633e-05
51 -1.4801706517230941e-15 3.8984961506554725e-05 3.432776801721079e-05
52 9.300354342309828e-07 3.973611904865235e-05 3.97361190423204e-05
53 -7.5759944564745995e-06 3.915190621674867e-05 3.915190620584515e-05
54 -2.020797676041271e-15 4.279612820400029e-05 4.148645694996176e-05
55 -1.9052586876308383e-14 4.148645697132301e-05 4.2796128194927873e-05
56 -4.401717727354917e-06 3.8706428236543494e-05 3.799840738502561e-05
57 -4.819340243059447e-06 3.767762376824048e-05 3.564741601511587e-05
58 -3.001824859769611e-15 4.011387777676132e-05 3.338030581875292e-05
59 -2.638565074810733e-15 3.952853289070974e-05 3.63085221441066e-05
60 -4.5028426949065655e-07 3.95739058810258e-05 3.6741338091558004e-05
61 -4.783593058323419e-06 4.2016169715282123e-05 3.74757605914717e-05
62 -1.673236388904367e-14 3.8670554523930206e-05 3.901309892252267e-05
63 1.607596351973145e-15 3.324353646917985e-05 3.584400126037799e-05
64 -4.401717723773815e-06 3.799840737373529e-05 3.8706428245167435e-05
65 -4.819340214748501e-06 3.564741601490135e-05 3.76776237672537e-05
66 -9.260172439595037e-15 3.6308522147385366e-05 3.952853288440628e-05
67 1.3398258686410238e-14 3.3380305823009084e-05 4.0113877805504066e-05
68 -8.08922910611723e-06 3.690921199210893e-05 3.690921199131119e-05
69 -3.880124288748903e-06 3.7537243499694336e-05 3.7537243502407985e-05
70 2.88272568476964e-14 3.577003623491169e-05 3.24769473530714e-05
71 1.8665222521509015e-14 3.2476947352706724e-05 3.5770036250692137e-05
72 -4.6918220029654885e-06 3.8219997606665626e-05 3.821999758097447e-05
73 -1.2225152314365902e-05 3.896647510569022e-05 3.896647507853499e-05
74 2.1559115043851007e-05 5.73426952907462e-05 2.948496719964057e-05
75 2.1559115011512495e-05 2.9484967210385213e-05 5.7342695322301724e-05
76 -1.7072975414011148e-07 3.5794511016649545e-05 3.5157111549543496e-05
77 -9.500596145879529e-07 3.7782345509129504e-05 3.700412932356884e-05
78 -3.0789804582704146e-06 3.920186628562107e-05 3.807555088381259e-05
79 -8.149749841743644e-07 3.578852758827637e-05 3.323707366866592e-05
80 4.502842542431559e-07 3.674133805353746e-05 3.9573905907233135e-05
81 4.783593015206745e-06 3.7475760589720366e-05 4.201616971586937e-05
82 1.0548743204883752e-05 4.094911655295571e-05 4.7791756556060215e-05
83 -3.0524189479911586e-06 3.480799570644766e-05 3.602898223020648e-05
84 -1.707297716447383e-07 3.5157111515238215e-05 3.579451103505179e-05
85 -9.500596166687726e-07 3.700412935684922e-05 3.778234552577019e-05
86 -8.149749902666611e-07 3.3237073647859066e-05 3.578852759097326e-05
87 -3.078980424984172e-06 3.8075550924272935e-05 3.920186627875031e-05
88 -9.300354372038935e-07 3.973611902750193e-05 3.973611903777263e-05
89 7.575994469605081e-06 3.9151906211887836e-05 3.915190621163578e-05
90 2.5471869904558706e-06 3.462548280012686e-05 3.481024916571369e-05
91 2.547186961374338e-06 3.4810249170485365e-05 3.462548279214345e-05
92 4.401717739704085e-06 3.8706428253926284e-05 3.799840739151543e-05
93 4.819340233173542e-06 3.767762380487739e-05 3.5647416008315665e-05
94 1.189191007969817e-06 3.0682236495389815e-05 4.266220468892477e-05
95 7.5121196319203295e-06 3.567999753158003e-05 3.982142645805848e-05
96 4.502842412326704e-07 3.9573905847524875e-05 3.674133805941457e-05
97 4.783593039000756e-06 4.201616974804967e-05 3.747576060763006e-05
98 -3.0524189499647195e-06 3.602898220895685e-05 3.4807995700162295e-05
99 1.0548743218360812e-05 4.7791756573950974e-05 4.094911658165279e-05
100 4.401717738384802e-06 3.7998407383777385e-05 3.870642825223059e-05
101 4.819340235680045e-06 3.56474160132965e-05 3.767762376504417e-05
102 7.512119634580346e-06 3.982142645883208e-05 3.567999752602336e-05
103 1.1891910074477686e-06 4.266220471445235e-05 3.068223651439435e-05
104 8.089229111432068e-06 3.690921201022225e-05 3.6909212016401026e-05
105 3.880124254010477e-06 3.753724353070552e-05 3.7537243462695435e-05
106 4.21699297145497e-06 4.199626927830411e-05 4.099320856674036e-05
107 4.2169929399708416e-06 4.099320856894185e-05 4.1996269313070694e-05
