LAMMPS data file via write_data, version 23 Jun 2022, timestep = 48

107 atoms
1 atom types

0 10.83 xlo xhi
0 10.83 ylo yhi
0 10.83 zlo zhi

Masses

1 63.546

Atoms # atomic

1 1 10.829999999999995 0.9024999999999996 0.9024999999999995 -1 0 0
2 1 1.960702209249193 10.791798161490174 1.8432018385098268 0 -1 0
3 1 1.960702209249193 1.8432018385098266 10.791798161490174 0 0 -1
4 1 0 0.052762045891955746 3.5193818179006184 0 0 0
5 1 7.160515974772125e-17 1.7973329266857492 5.412072853352412 0 0 0
6 1 1.7913547694713805 0.004624959947362085 5.398280906038751 0 0 0
7 1 1.8120361232467532 1.801436962575499 3.590491645443946 0 0 0
8 1 6.701044051841294e-16 0.007667073314251389 7.222927146647589 0 0 0
9 1 0 1.7522379541080437 9.11561818209938 0 0 0
10 1 1.8120361232467532 0.0035630374245005396 9.044508354556054 0 0 0
11 1 1.791354769471381 1.800375040052637 7.236719093961249 0 0 0
12 1 10.829999999999998 3.519381817900619 0.05276204589195646 -1 0 0
13 1 3.0477263192054433e-16 5.412072853352412 1.797332926685749 0 0 0
14 1 1.812036123246753 3.590491645443947 1.8014369625754985 0 0 0
15 1 1.7913547694713818 5.39828090603875 0.004624959947363143 0 0 0
16 1 4.10103089613375e-16 3.5834380223808298 3.5834380223808306 0 0 0
17 1 1.4707479170703718e-16 5.406590395967676 5.406590395967676 0 0 0
18 1 1.7921628721370486 3.6041138845668996 5.417541566471104 0 0 0
19 1 1.7921628721370493 5.417541566471104 3.6041138845669 0 0 0
20 1 2.223733190478363e-16 3.5876163687274816 7.243821155251724 0 0 0
21 1 0 5.391178844748276 9.047383631272517 0 0 0
22 1 1.804434603684933 3.6109162538827158 9.024083746117284 0 0 0
23 1 1.7901266690874533 5.414128059877202 7.220871940122798 0 0 0
24 1 1.4397647324654618e-16 7.222927146647589 0.007667073314251334 0 0 0
25 1 10.829999999999998 9.11561818209938 1.7522379541080444 -1 0 0
26 1 1.7913547694713803 7.236719093961249 1.8003750400526375 0 0 0
27 1 1.8120361232467541 9.044508354556053 0.003563037424500354 0 0 0
28 1 0 7.243821155251725 3.5876163687274816 0 0 0
29 1 0 9.047383631272519 5.391178844748276 0 0 0
30 1 1.7901266690874542 7.220871940122798 5.414128059877202 0 0 0
31 1 1.804434603684933 9.024083746117284 3.6109162538827158 0 0 0
32 1 0 7.228409604032324 7.228409604032325 0 0 0
33 1 4.378037838718947e-16 9.051561977619171 9.051561977619171 0 0 0
34 1 1.7921628721370493 7.217458433528896 9.0308861154331 0 0 0
35 1 1.7921628721370488 9.0308861154331 7.217458433528896 0 0 0
36 1 3.651559041468929 10.81913883871386 10.81913883871386 0 -1 -1
37 1 3.6515590414689285 1.8158611612861388 1.81586116128614 0 0 0
38 1 5.414999999999999 10.821156452969475 1.8138435470305234 0 -1 0
39 1 5.415 1.8138435470305232 10.821156452969475 0 0 -1
40 1 3.6409370170254087 10.829555612023555 3.6387542473059837 0 -1 0
41 1 3.597169748623089 1.8090862236443714 5.420452355901985 0 0 0
42 1 5.415000000000001 10.826888945143711 5.432652657171027 0 -1 0
43 1 5.415 1.816211192837106 3.6302425668430165 0 0 0
44 1 3.5971697486230876 10.825913776355629 7.214547644098015 0 -1 0
45 1 3.640937017025408 1.8054443879764455 8.996245752694016 0 0 0
46 1 5.415000000000001 10.818788807162893 9.004757433156984 0 -1 0
47 1 5.415000000000001 1.8081110548562884 7.202347342828973 0 0 0
48 1 3.6409370170254087 3.6387542473059855 10.829555612023555 0 0 -1
49 1 3.597169748623089 5.420452355901984 1.8090862236443714 0 0 0
50 1 5.415000000000001 3.630242566843017 1.8162111928371063 0 0 0
51 1 5.415 5.432652657171027 10.826888945143711 0 0 -1
52 1 3.608935912090729 3.6180420736857117 3.6180420736857117 0 0 0
53 1 3.5982759419946406 5.416474066952223 5.4164740669522216 0 0 0
54 1 5.414999999999999 3.6174920319919117 5.419284340309184 0 0 0
55 1 5.414999999999999 5.419284340309184 3.6174920319919117 0 0 0
56 1 3.602416774644303 3.615365298896574 7.214852239498914 0 0 0
57 1 3.6024167746443037 5.420147760501086 9.019634701103426 0 0 0
58 1 5.415000000000001 3.6248019926473476 9.010198007352653 0 0 0
59 1 5.415 5.419759846646794 7.215240153353206 0 0 0
60 1 3.597169748623088 7.214547644098015 10.825913776355629 0 0 -1
61 1 3.6409370170254083 8.996245752694016 1.8054443879764457 0 0 0
62 1 5.415000000000001 7.202347342828972 1.8081110548562882 0 0 0
63 1 5.415 9.004757433156986 10.818788807162894 0 0 -1
64 1 3.6024167746443028 7.2148522394989145 3.6153652988965748 0 0 0
65 1 3.602416774644303 9.019634701103426 5.420147760501086 0 0 0
66 1 5.414999999999998 7.215240153353206 5.4197598466467936 0 0 0
67 1 5.415 9.010198007352654 3.624801992647348 0 0 0
68 1 3.5982759419946406 7.218525933047777 7.2185259330477765 0 0 0
69 1 3.608935912090729 9.016957926314289 9.016957926314289 0 0 0
70 1 5.414999999999999 7.215715659690815 9.017507968008088 0 0 0
71 1 5.414999999999999 9.017507968008088 7.215715659690816 0 0 0
72 1 7.178440958531068 10.81913883871386 10.81913883871386 0 -1 -1
73 1 7.178440958531071 1.815861161286141 1.8158611612861402 0 0 0
74 1 8.869297790750814 10.791798161490176 1.8432018385098248 0 -1 0
75 1 8.869297790750812 1.843201838509825 10.791798161490176 0 0 -1
76 1 7.18906298297459 10.829555612023555 3.6387542473059877 0 -1 0
77 1 7.232830251376911 1.8090862236443703 5.420452355901984 0 0 0
78 1 9.038645230528617 0.004624959947362143 5.398280906038751 0 0 0
79 1 9.017963876753246 1.801436962575499 3.5904916454439464 0 0 0
80 1 7.232830251376911 10.825913776355629 7.214547644098015 0 -1 0
81 1 7.18906298297459 1.8054443879764455 8.996245752694012 0 0 0
82 1 9.017963876753248 0.0035630374245012334 9.044508354556053 0 0 0
83 1 9.038645230528617 1.8003750400526373 7.23671909396125 0 0 0
84 1 7.1890629829745905 3.6387542473059864 10.829555612023555 0 0 -1
85 1 7.232830251376911 5.4204523559019835 1.8090862236443712 0 0 0
86 1 9.017963876753246 3.590491645443947 1.8014369625754982 0 0 0
87 1 9.038645230528617 5.39828090603875 0.004624959947362382 0 0 0
88 1 7.221064087909271 3.6180420736857117 3.6180420736857104 0 0 0
89 1 7.231724058005361 5.416474066952223 5.4164740669522216 0 0 0
90 1 9.03783712786295 3.6041138845669 5.417541566471104 0 0 0
91 1 9.03783712786295 5.417541566471104 3.6041138845669 0 0 0
92 1 7.227583225355697 3.615365298896573 7.2148522394989145 0 0 0
93 1 7.227583225355696 5.420147760501085 9.019634701103426 0 0 0
94 1 9.025565396315066 3.6109162538827166 9.024083746117284 0 0 0
95 1 9.039873330912545 5.414128059877203 7.220871940122798 0 0 0
96 1 7.232830251376912 7.214547644098016 10.82591377635563 0 0 -1
97 1 7.1890629829745905 8.996245752694012 1.8054443879764448 0 0 0
98 1 9.038645230528617 7.23671909396125 1.8003750400526373 0 0 0
99 1 9.017963876753246 9.044508354556053 0.0035630374245009576 0 0 0
100 1 7.227583225355697 7.2148522394989145 3.615365298896574 0 0 0
101 1 7.227583225355697 9.019634701103428 5.420147760501085 0 0 0
102 1 9.039873330912545 7.220871940122798 5.414128059877202 0 0 0
103 1 9.025565396315068 9.024083746117283 3.610916253882716 0 0 0
104 1 7.23172405800536 7.2185259330477765 7.218525933047778 0 0 0
105 1 7.221064087909271 9.016957926314289 9.016957926314289 0 0 0
106 1 9.03783712786295 7.217458433528896 9.0308861154331 0 0 0
107 1 9.03783712786295 9.0308861154331 7.217458433528896 0 0 0

Velocities

1 1.372911908844609e-13 3.3160453430155194e-15 -2.433023275271281e-15
2 1.0840522280048348e-05 4.947547110770698e-06 -4.947547141020752e-06
3 1.084052228768517e-05 -4.947547124266936e-06 4.947547124092234e-06
4 9.43876937330667e-16 9.096122657871069e-06 -9.814856772738028e-06
5 -1.3471698105537728e-14 -2.3805711615223746e-06 -3.4485336839778157e-06
6 -4.488837376661038e-07 2.2098449565874114e-06 -1.943755537050997e-06
7 8.592496916731962e-06 -1.797569558167765e-07 -1.2892252376366243e-06
8 -9.095541396095535e-15 2.3805711433027844e-06 3.448533671747873e-06
9 6.778752549920257e-15 -9.096122641214904e-06 9.814856797401532e-06
10 8.592496913304946e-06 1.7975696517398876e-07 1.2892252453442247e-06
11 -4.488837432684813e-07 -2.2098449463516387e-06 1.9437555243008406e-06
12 2.3425309444661136e-14 -9.814856784472135e-06 9.096122642297099e-06
13 -1.372911908844609e-14 -3.4485336801808562e-06 -2.3805711524268335e-06
14 8.592496918877137e-06 -1.2892252557043595e-06 -1.7975695067774197e-07
15 -4.4888375807744254e-07 -1.9437555193152615e-06 2.209844935694131e-06
16 -1.1154909259362449e-14 -8.895622989511204e-06 -8.895623008616668e-06
17 -6.0922965954979525e-15 -3.5066483152198686e-06 -3.50664831814401e-06
18 -4.937139323506487e-06 -2.5088368921336974e-06 -1.0880468503267319e-06
19 -4.937139338876665e-06 -1.088046849872956e-06 -2.5088368997014773e-06
20 -1.1927172208087541e-14 -7.836434572563388e-06 5.082917446755609e-06
21 -2.402595840478065e-15 -5.082917440850303e-06 7.836434595436733e-06
22 -2.2931292900073394e-06 -6.08698613942138e-06 6.086986144602038e-06
23 -1.0409220112913176e-05 -2.3892691382382337e-06 2.3892691361988774e-06
24 -9.095541396095536e-15 3.4485336643041164e-06 2.380571140685671e-06
25 3.320730679517898e-14 9.814856792725052e-06 -9.096122660542929e-06
26 -4.4888373481649235e-07 1.9437555248712394e-06 -2.2098449443649954e-06
27 8.592496905796834e-06 1.2892252579846677e-06 1.7975697747522583e-07
28 -4.805191680956132e-15 5.082917434259966e-06 -7.836434567892269e-06
29 -8.065857464462077e-15 7.836434569587376e-06 -5.082917440340825e-06
30 -1.0409220132026685e-05 2.3892691431536972e-06 -2.3892691367174865e-06
31 -2.293129286532156e-06 6.086986143612576e-06 -6.086986142698135e-06
32 -4.2045427208366136e-15 3.506648324524388e-06 3.5066483128251405e-06
33 -9.953611339123419e-15 8.895622981745593e-06 8.895622986636591e-06
34 -4.937139336633312e-06 1.0880468487804482e-06 2.5088368957113147e-06
35 -4.937139331474167e-06 2.5088368925393677e-06 1.08804685869235e-06
36 1.266710180183884e-05 -2.759460892539912e-06 -2.7594608915420707e-06
37 1.2667101813999542e-05 2.759460920370344e-06 2.759460890890614e-06
38 1.4322217406840116e-14 -3.5173823339037445e-06 3.517382352848765e-06
39 -6.447781316128335e-15 3.5173823564526586e-06 -3.51738233752909e-06
40 4.18418452848757e-06 -1.3781833558338386e-06 2.7366492022069307e-06
41 5.373013562533123e-07 1.9758193537506093e-06 2.8161975547016703e-06
42 -2.789799902269397e-14 -3.315206733533744e-06 2.4883482202636974e-06
43 -4.818571972871722e-15 3.549643405422385e-06 8.29157863635501e-06
44 5.373013758003106e-07 -1.9758193604615742e-06 -2.8161975640667397e-06
45 4.184184548956797e-06 1.3781833590775949e-06 -2.7366491843202766e-06
46 -2.1191986437070995e-14 -3.5496433912854584e-06 -8.291578652191847e-06
47 -2.3017726221722896e-14 3.3152067318943533e-06 -2.4883482087192508e-06
48 4.184184539106186e-06 2.7366491657007475e-06 -1.378183356462978e-06
49 5.373013571113822e-07 2.816197572607177e-06 1.9758193658493954e-06
50 -1.7999110666652948e-14 8.291578628495626e-06 3.5496433954067014e-06
51 -4.848095178107525e-15 2.488348215276166e-06 -3.315206733276323e-06
52 2.0365922718818474e-06 4.9176089008305055e-06 4.917608902219758e-06
53 -9.503057837574984e-06 2.3937576344443676e-06 2.3937576644570293e-06
54 1.8495773175282376e-14 7.148741641438129e-06 5.2593808494663055e-06
55 1.478936519911308e-14 5.2593808528979985e-06 7.148741636847455e-06
56 -5.972615310166888e-06 2.786519110348374e-06 -4.7725360986523525e-08
57 -5.972615320021759e-06 4.772536233119505e-08 -2.786519104770408e-06
58 -2.2711599199288638e-14 5.646960071359378e-06 -5.646960077310139e-06
59 3.0461482977489763e-15 2.338431102758772e-06 -2.338431125093451e-06
60 5.373013744703023e-07 -2.816197567405168e-06 -1.975819359174469e-06
61 4.184184538531248e-06 -2.736649190620722e-06 1.378183357891883e-06
62 -2.205239753581653e-14 -2.4883481958482014e-06 3.3152067456234724e-06
63 -8.432317882834468e-15 -8.291578674368934e-06 -3.549643410333899e-06
64 -5.972615305814577e-06 -4.772536550098536e-08 2.7865190830939277e-06
65 -5.972615316889804e-06 -2.7865190906551575e-06 4.772536272143253e-08
66 3.2542302589332374e-14 -2.3384311113993585e-06 2.338431114600137e-06
67 -5.371901126042396e-15 -5.646960102170201e-06 5.646960060672124e-06
68 -9.503057836221227e-06 -2.3937576472235905e-06 -2.393757636605593e-06
69 2.036592277801959e-06 -4.9176089210558735e-06 -4.917608921844226e-06
70 1.1244163169054417e-14 -5.259380827436072e-06 -7.1487416218179526e-06
71 1.1370277394078528e-14 -7.1487416367161915e-06 -5.259380846316125e-06
72 -1.2667101739296269e-05 -2.7594608786827528e-06 -2.7594608822008398e-06
73 -1.2667101792022225e-05 2.7594608679932186e-06 2.759460890882234e-06
74 -1.0840522462527647e-05 4.947547058581275e-06 -4.947547071774507e-06
75 -1.0840522434157709e-05 -4.947547087986667e-06 4.947547058342625e-06
76 -4.184184488748206e-06 -1.3781833620022218e-06 2.736649100887641e-06
77 -5.373013612301179e-07 1.975819387509e-06 2.816197569827667e-06
78 4.4888377429496447e-07 2.2098449550275194e-06 -1.943755530218113e-06
79 -8.59249690480479e-06 -1.7975695642681057e-07 -1.2892252526153076e-06
80 -5.373013635406363e-07 -1.975819372521898e-06 -2.8161975662743426e-06
81 -4.18418449328951e-06 1.3781833572310685e-06 -2.7366491124743482e-06
82 -8.592496935142826e-06 1.7975695499379332e-07 1.2892252811525561e-06
83 4.4888376735879494e-07 -2.209844943447933e-06 1.9437555076079448e-06
84 -4.184184514227185e-06 2.7366491325531033e-06 -1.3781833635419714e-06
85 -5.373013614553613e-07 2.8161975837035964e-06 1.975819369518273e-06
86 -8.592496902488001e-06 -1.2892252582571175e-06 -1.7975694141058658e-07
87 4.4888376854589584e-07 -1.9437555084821285e-06 2.2098449466827892e-06
88 -2.0365922809409376e-06 4.917608904898461e-06 4.917608931485389e-06
89 9.503057797749812e-06 2.3937576366980427e-06 2.3937576595724987e-06
90 4.937139340807322e-06 -2.508836903139717e-06 -1.0880468476231202e-06
91 4.937139351275775e-06 -1.0880468469393457e-06 -2.508836907419341e-06
92 5.972615309415643e-06 2.786519124739355e-06 -4.772538774720279e-08
93 5.972615318144732e-06 4.772538156293904e-08 -2.7865191012074905e-06
94 2.2931292873258707e-06 -6.086986157178065e-06 6.086986147262054e-06
95 1.0409220133892986e-05 -2.389269152877116e-06 2.3892691378611876e-06
96 -5.373013853785163e-07 -2.8161975839659183e-06 -1.9758193945110294e-06
97 -4.184184506290276e-06 -2.7366491058819577e-06 1.3781833783674931e-06
98 4.488837692465488e-07 1.9437554985284923e-06 -2.2098449441987444e-06
99 -8.592496911288482e-06 1.2892252789644778e-06 1.797569524195835e-07
100 5.9726152973383085e-06 -4.7725373225793535e-08 2.7865191094786567e-06
101 5.972615305863605e-06 -2.7865191396830033e-06 4.772538407664823e-08
102 1.0409220137754301e-05 2.3892691473334753e-06 -2.3892691328009607e-06
103 2.293129266388964e-06 6.08698617272528e-06 -6.0869861550972455e-06
104 9.503057809556703e-06 -2.3937576289870376e-06 -2.393757663315869e-06
105 -2.0365922811806094e-06 -4.917608922499677e-06 -4.917608918667775e-06
106 4.937139345696676e-06 1.0880468527200493e-06 2.508836902174246e-06
107 4.937139344495378e-06 2.5088368913625645e-06 1.0880468544281446e-06
