LAMMPS (23 Jun 2022)
Processor partition = 3
Reading data file ...
  orthogonal box = (0 0 0) to (10.83 10.83 10.83)
  1 by 1 by 1 MPI processor grid
  reading atoms ...
  107 atoms
  read_data CPU = 0.003 seconds
SNAP keyword rcutfac 4.2 
SNAP keyword twojmax 4 
SNAP keyword rfac0 0.99363 
SNAP keyword rmin0 0.0 
SNAP keyword chemflag 0 
SNAP keyword bnormflag 0 
SNAP keyword switchflag 1 
SNAP keyword bzeroflag 1 
SNAP keyword wselfallflag 0 
SNAP keyword nelems 1 
SNAP keyword elems       Cu 
SNAP keyword radelems    0.5 
SNAP keyword welems      1.0 
WARNING: No fixes with time integration, atoms won't move (src/verlet.cpp:60)
Neighbor list info ...
  update every 2 steps, delay 10 steps, check yes
  max neighbors/atom: 100000, page size: 1000000
  master list distance cutoff = 6.2
  ghost atom cutoff = 6.2
  binsize = 3.1, bins = 4 4 4
  1 neighbor lists, perpetual/occasional/extra = 1 0 0
  (1) pair mliap, perpetual
      attributes: full, newton on
      pair build: full/bin/atomonly
      stencil: full/bin/3d
      bin: standard
Setting up Verlet run ...
  Unit style    : metal
  Current step  : 0
  Time step     : 0.010180505671156723
Per MPI rank memory allocation (min/avg/max) = 12.14 | 12.14 | 12.14 Mbytes
   Step          Temp          E_pair         E_mol          TotEng         Press     
         0   0              0.67680419     0              0.67680419     177314.22    
         1   0              0.67680419     0              0.67680419     177314.22    
         2   0              0.67680419     0              0.67680419     177314.22    
         3   0              0.67680419     0              0.67680419     177314.22    
         4   0              0.67680419     0              0.67680419     177314.22    
         5   0              0.67680419     0              0.67680419     177314.22    
         6   0              0.67680419     0              0.67680419     177314.22    
         7   0              0.67680419     0              0.67680419     177314.22    
         8   0              0.67680419     0              0.67680419     177314.22    
         9   0              0.67680419     0              0.67680419     177314.22    
        10   0              0.67680419     0              0.67680419     177314.22    
        11   0              0.67680419     0              0.67680419     177314.22    
        12   0              0.67680419     0              0.67680419     177314.22    
        13   0              0.67680419     0              0.67680419     177314.22    
        14   0              0.67680419     0              0.67680419     177314.22    
        15   0              0.67680419     0              0.67680419     177314.22    
        16   0              0.67680419     0              0.67680419     177314.22    
        17   0              0.67680419     0              0.67680419     177314.22    
        18   0              0.67680419     0              0.67680419     177314.22    
        19   0              0.67680419     0              0.67680419     177314.22    
        20   0              0.67680419     0              0.67680419     177314.22    
        21   0              0.67680419     0              0.67680419     177314.22    
        22   0              0.67680419     0              0.67680419     177314.22    
        23   0              0.67680419     0              0.67680419     177314.22    
        24   0              0.67680419     0              0.67680419     177314.22    
        25   0              0.67680419     0              0.67680419     177314.22    
        26   0              0.67680419     0              0.67680419     177314.22    
        27   0              0.67680419     0              0.67680419     177314.22    
        28   0              0.67680419     0              0.67680419     177314.22    
        29   0              0.67680419     0              0.67680419     177314.22    
        30   0              0.67680419     0              0.67680419     177314.22    
        31   0              0.67680419     0              0.67680419     177314.22    
        32   0              0.67680419     0              0.67680419     177314.22    
        33   0              0.67680419     0              0.67680419     177314.22    
        34   0              0.67680419     0              0.67680419     177314.22    
        35   0              0.67680419     0              0.67680419     177314.22    
        36   0              0.67680419     0              0.67680419     177314.22    
        37   0              0.67680419     0              0.67680419     177314.22    
        38   0              0.67680419     0              0.67680419     177314.22    
        39   0              0.67680419     0              0.67680419     177314.22    
        40   0              0.67680419     0              0.67680419     177314.22    
        41   0              0.67680419     0              0.67680419     177314.22    
        42   0              0.67680419     0              0.67680419     177314.22    
        43   0              0.67680419     0              0.67680419     177314.22    
        44   0              0.67680419     0              0.67680419     177314.22    
        45   0              0.67680419     0              0.67680419     177314.22    
        46   0              0.67680419     0              0.67680419     177314.22    
        47   0              0.67680419     0              0.67680419     177314.22    
        48   0              0.67680419     0              0.67680419     177314.22    
        49   0              0.67680419     0              0.67680419     177314.22    
        50   0              0.67680419     0              0.67680419     177314.22    
        51   0              0.67680419     0              0.67680419     177314.22    
        52   0              0.67680419     0              0.67680419     177314.22    
        53   0              0.67680419     0              0.67680419     177314.22    
        54   0              0.67680419     0              0.67680419     177314.22    
        55   0              0.67680419     0              0.67680419     177314.22    
        56   0              0.67680419     0              0.67680419     177314.22    
        57   0              0.67680419     0              0.67680419     177314.22    
        58   0              0.67680419     0              0.67680419     177314.22    
        59   0              0.67680419     0              0.67680419     177314.22    
        60   0              0.67680419     0              0.67680419     177314.22    
        61   0              0.67680419     0              0.67680419     177314.22    
        62   0              0.67680419     0              0.67680419     177314.22    
        63   0              0.67680419     0              0.67680419     177314.22    
        64   0              0.67680419     0              0.67680419     177314.22    
        65   0              0.67680419     0              0.67680419     177314.22    
        66   0              0.67680419     0              0.67680419     177314.22    
        67   0              0.67680419     0              0.67680419     177314.22    
        68   0              0.67680419     0              0.67680419     177314.22    
        69   0              0.67680419     0              0.67680419     177314.22    
        70   0              0.67680419     0              0.67680419     177314.22    
        71   0              0.67680419     0              0.67680419     177314.22    
        72   0              0.67680419     0              0.67680419     177314.22    
        73   0              0.67680419     0              0.67680419     177314.22    
        74   0              0.67680419     0              0.67680419     177314.22    
        75   0              0.67680419     0              0.67680419     177314.22    
        76   0              0.67680419     0              0.67680419     177314.22    
        77   0              0.67680419     0              0.67680419     177314.22    
        78   0              0.67680419     0              0.67680419     177314.22    
        79   0              0.67680419     0              0.67680419     177314.22    
        80   0              0.67680419     0              0.67680419     177314.22    
        81   0              0.67680419     0              0.67680419     177314.22    
        82   0              0.67680419     0              0.67680419     177314.22    
        83   0              0.67680419     0              0.67680419     177314.22    
        84   0              0.67680419     0              0.67680419     177314.22    
        85   0              0.67680419     0              0.67680419     177314.22    
        86   0              0.67680419     0              0.67680419     177314.22    
        87   0              0.67680419     0              0.67680419     177314.22    
        88   0              0.67680419     0              0.67680419     177314.22    
        89   0              0.67680419     0              0.67680419     177314.22    
        90   0              0.67680419     0              0.67680419     177314.22    
        91   0              0.67680419     0              0.67680419     177314.22    
        92   0              0.67680419     0              0.67680419     177314.22    
        93   0              0.67680419     0              0.67680419     177314.22    
        94   0              0.67680419     0              0.67680419     177314.22    
        95   0              0.67680419     0              0.67680419     177314.22    
        96   0              0.67680419     0              0.67680419     177314.22    
        97   0              0.67680419     0              0.67680419     177314.22    
        98   0              0.67680419     0              0.67680419     177314.22    
        99   0              0.67680419     0              0.67680419     177314.22    
       100   0              0.67680419     0              0.67680419     177314.22    
Loop time of 0.351943 on 1 procs for 100 steps with 107 atoms

Performance: 249.926 ns/day, 0.096 hours/ns, 284.137 timesteps/s
94.1% CPU use with 1 MPI tasks x no OpenMP threads

MPI task timing breakdown:
Section |  min time  |  avg time  |  max time  |%varavg| %total
---------------------------------------------------------------
Pair    | 0.35109    | 0.35109    | 0.35109    |   0.0 | 99.76
Neigh   | 0          | 0          | 0          |   0.0 |  0.00
Comm    | 0.00035867 | 0.00035867 | 0.00035867 |   0.0 |  0.10
Output  | 0.00039367 | 0.00039367 | 0.00039367 |   0.0 |  0.11
Modify  | 1.2458e-05 | 1.2458e-05 | 1.2458e-05 |   0.0 |  0.00
Other   |            | 8.716e-05  |            |       |  0.02

Nlocal:            107 ave         107 max         107 min
Histogram: 1 0 0 0 0 0 0 0 0 0
Nghost:            983 ave         983 max         983 min
Histogram: 1 0 0 0 0 0 0 0 0 0
Neighs:              0 ave           0 max           0 min
Histogram: 1 0 0 0 0 0 0 0 0 0
FullNghs:         8268 ave        8268 max        8268 min
Histogram: 1 0 0 0 0 0 0 0 0 0

Total # of neighbors = 8268
Ave neighs/atom = 77.271028
Neighbor list builds = 0
Dangerous builds = 0
WARNING: Using 'neigh_modify every 1 delay 0 check yes' setting during minimization (src/min.cpp:187)
Setting up quickmin style minimization ...
  Unit style    : metal
  Current step  : 0
Per MPI rank memory allocation (min/avg/max) = 12.15 | 12.15 | 12.15 Mbytes
   Step          Temp          E_pair         E_mol          TotEng         Press     
         0   0              1.6137463      0              1.6137463      178618.69    
         1   2.4405114      1.6137463      0              1.6471851      178646.81    
         2   9.7620455      1.5504508      0              1.6842063      178786.06    
         3   20.621929      1.4443631      0              1.726916       179003.89    
         4   31.595059      1.3374613      0              1.7703634      179210.84    
         5   35.823334      1.267033       0              1.7578691      179260.65    
         6   26.664783      1.236437       0              1.6017865      179101.26    
         7   11.918361      1.2294014      0              1.3927017      178908.83    
         8   0.054268349    1.2294014      0              1.2301449      178772.13    
         9   0.2170734      1.228055       0              1.2310292      178768.53    
        10   0.41691729     1.226192       0              1.2319044      178760.31    
        11   0.47576797     1.2249633      0              1.2314821      178746.57    
        12   0.26734518     1.2242215      0              1.2278846      178734.64    
        13   0.30489114     1.2235637      0              1.2277412      178727.4     
        14   0.32859551     1.2230563      0              1.2275585      178717.47    
        15   0.28639168     1.2228286      0              1.2267526      178714.42    
        16   0.01826894     1.2227462      0              1.2229965      178708.92    
        17   0.020700949    1.2226937      0              1.2229773      178705.98    
        18   0.0089621126   1.2226636      0              1.2227863      178705.14    
        19   0.0099565281   1.2226352      0              1.2227716      178703.8     
        20   0.011133614    1.2226101      0              1.2227627      178702.61    
        21   0.010863471    1.222591       0              1.2227399      178701.11    
        22   0.0056806357   1.2225815      0              1.2226593      178700.42    
        23   0.00014378076  1.2225806      0              1.2225825      178700.22    
        24   0.00033808004  1.2225789      0              1.2225836      178699.96    
        25   0.00053446726  1.2225769      0              1.2225843      178699.66    
        26   0.00064685533  1.2225749      0              1.2225838      178699.37    
        27   0.00073974108  1.2225731      0              1.2225832      178699.04    
        28   0.00076321503  1.2225716      0              1.222582       178698.7     
        29   0.00067342969  1.2225706      0              1.2225798      178698.36    
        30   0.00031976914  1.2225701      0              1.2225745      178698.16    
        31   3.791346e-06   1.2225701      0              1.2225701      178698.14    
        32   9.8316658e-06  1.22257        0              1.2225702      178698.1     
        33   1.9422328e-05  1.2225699      0              1.2225702      178698.05    
        34   2.1348111e-05  1.2225699      0              1.2225702      178698       
        35   2.3721759e-05  1.2225698      0              1.2225701      178697.94    
        36   2.3997779e-05  1.2225698      0              1.2225701      178697.88    
        37   2.1488628e-05  1.2225697      0              1.22257        178697.82    
        38   1.4553163e-05  1.2225697      0              1.2225699      178697.77    
        39   2.6657609e-06  1.2225697      0              1.2225697      178697.75    
        40   1.2323733e-07  1.2225697      0              1.2225697      178697.75    
        41   2.9847241e-07  1.2225697      0              1.2225697      178697.74    
        42   5.1888957e-07  1.2225697      0              1.2225697      178697.74    
        43   6.6691507e-07  1.2225697      0              1.2225697      178697.73    
        44   7.7588314e-07  1.2225697      0              1.2225697      178697.72    
        45   8.1794114e-07  1.2225697      0              1.2225697      178697.71    
        46   7.8062299e-07  1.2225697      0              1.2225697      178697.7     
        47   6.6664941e-07  1.2225697      0              1.2225697      178697.69    
Loop time of 0.42413 on 1 procs for 47 steps with 107 atoms

95.3% CPU use with 1 MPI tasks x no OpenMP threads

Minimization stats:
  Stopping criterion = force tolerance
  Energy initial, next-to-last, final = 
      1.61374626939042   1.22256967214086   1.22256967110867
  Force two-norm initial, final = 2.0615068 5.3273496e-05
  Force max component initial, final = 0.7635994 8.194733e-06
  Final line search alpha, max atom move = 0 0
  Iterations, force evaluations = 47 47

MPI task timing breakdown:
Section |  min time  |  avg time  |  max time  |%varavg| %total
---------------------------------------------------------------
Pair    | 0.213      | 0.213      | 0.213      |   0.0 | 50.22
Neigh   | 0          | 0          | 0          |   0.0 |  0.00
Comm    | 0.00026671 | 0.00026671 | 0.00026671 |   0.0 |  0.06
Output  | 0.00037267 | 0.00037267 | 0.00037267 |   0.0 |  0.09
Modify  | 0.20524    | 0.20524    | 0.20524    |   0.0 | 48.39
Other   |            | 0.005257   |            |       |  1.24

Nlocal:            107 ave         107 max         107 min
Histogram: 1 0 0 0 0 0 0 0 0 0
Nghost:            983 ave         983 max         983 min
Histogram: 1 0 0 0 0 0 0 0 0 0
Neighs:              0 ave           0 max           0 min
Histogram: 1 0 0 0 0 0 0 0 0 0
FullNghs:         8278 ave        8278 max        8278 min
Histogram: 1 0 0 0 0 0 0 0 0 0

Total # of neighbors = 8278
Ave neighs/atom = 77.364486
Neighbor list builds = 0
Dangerous builds = 0
WARNING: Using 'neigh_modify every 1 delay 0 check yes' setting during minimization (src/min.cpp:187)
Setting up quickmin style minimization ...
  Unit style    : metal
  Current step  : 47
Per MPI rank memory allocation (min/avg/max) = 12.15 | 12.15 | 12.15 Mbytes
   Step          Temp          E_pair         E_mol          TotEng         Press     
        47   0              1.2225697      0              1.2225697      178697.69    
        48   1.6297977e-09  1.2225697      0              1.2225697      178697.69    
Loop time of 0.0208781 on 1 procs for 1 steps with 107 atoms

80.7% CPU use with 1 MPI tasks x no OpenMP threads

Minimization stats:
  Stopping criterion = force tolerance
  Energy initial, next-to-last, final = 
      1.22256967110867   1.22256967110867   1.22256967110867
  Force two-norm initial, final = 5.3273496e-05 5.3273496e-05
  Force max component initial, final = 8.194733e-06 8.194733e-06
  Final line search alpha, max atom move = 0 0
  Iterations, force evaluations = 1 1

MPI task timing breakdown:
Section |  min time  |  avg time  |  max time  |%varavg| %total
---------------------------------------------------------------
Pair    | 0.019239   | 0.019239   | 0.019239   |   0.0 | 92.15
Neigh   | 0          | 0          | 0          |   0.0 |  0.00
Comm    | 2.3625e-05 | 2.3625e-05 | 2.3625e-05 |   0.0 |  0.11
Output  | 0          | 0          | 0          |   0.0 |  0.00
Modify  | 0.0014224  | 0.0014224  | 0.0014224  |   0.0 |  6.81
Other   |            | 0.0001935  |            |       |  0.93

Nlocal:            107 ave         107 max         107 min
Histogram: 1 0 0 0 0 0 0 0 0 0
Nghost:            983 ave         983 max         983 min
Histogram: 1 0 0 0 0 0 0 0 0 0
Neighs:              0 ave           0 max           0 min
Histogram: 1 0 0 0 0 0 0 0 0 0
FullNghs:         8302 ave        8302 max        8302 min
Histogram: 1 0 0 0 0 0 0 0 0 0

Total # of neighbors = 8302
Ave neighs/atom = 77.588785
Neighbor list builds = 0
Dangerous builds = 0
System init for write_data ...
Total wall time: 0:00:00
