LAMMPS (23 Jun 2022)
Processor partition = 1
Reading data file ...
  orthogonal box = (0 0 0) to (10.83 10.83 10.83)
  1 by 1 by 1 MPI processor grid
  reading atoms ...
  107 atoms
  read_data CPU = 0.008 seconds
SNAP keyword rcutfac 4.2 
SNAP keyword twojmax 4 
SNAP keyword rfac0 0.99363 
SNAP keyword rmin0 0.0 
SNAP keyword chemflag 0 
SNAP keyword bnormflag 0 
SNAP keyword switchflag 1 
SNAP keyword bzeroflag 1 
SNAP keyword wselfallflag 0 
SNAP keyword nelems 1 
SNAP keyword elems       Cu 
SNAP keyword radelems    0.5 
SNAP keyword welems      1.0 
WARNING: No fixes with time integration, atoms won't move (src/verlet.cpp:60)
Neighbor list info ...
  update every 2 steps, delay 10 steps, check yes
  max neighbors/atom: 100000, page size: 1000000
  master list distance cutoff = 6.2
  ghost atom cutoff = 6.2
  binsize = 3.1, bins = 4 4 4
  1 neighbor lists, perpetual/occasional/extra = 1 0 0
  (1) pair mliap, perpetual
      attributes: full, newton on
      pair build: full/bin/atomonly
      stencil: full/bin/3d
      bin: standard
Setting up Verlet run ...
  Unit style    : metal
  Current step  : 0
  Time step     : 0.010180505671156723
Per MPI rank memory allocation (min/avg/max) = 12.14 | 12.14 | 12.14 Mbytes
   Step          Temp          E_pair         E_mol          TotEng         Press     
         0   0              0.67680419     0              0.67680419     177314.22    
         1   0              0.67680419     0              0.67680419     177314.22    
         2   0              0.67680419     0              0.67680419     177314.22    
         3   0              0.67680419     0              0.67680419     177314.22    
         4   0              0.67680419     0              0.67680419     177314.22    
         5   0              0.67680419     0              0.67680419     177314.22    
         6   0              0.67680419     0              0.67680419     177314.22    
         7   0              0.67680419     0              0.67680419     177314.22    
         8   0              0.67680419     0              0.67680419     177314.22    
         9   0              0.67680419     0              0.67680419     177314.22    
        10   0              0.67680419     0              0.67680419     177314.22    
        11   0              0.67680419     0              0.67680419     177314.22    
        12   0              0.67680419     0              0.67680419     177314.22    
        13   0              0.67680419     0              0.67680419     177314.22    
        14   0              0.67680419     0              0.67680419     177314.22    
        15   0              0.67680419     0              0.67680419     177314.22    
        16   0              0.67680419     0              0.67680419     177314.22    
        17   0              0.67680419     0              0.67680419     177314.22    
        18   0              0.67680419     0              0.67680419     177314.22    
        19   0              0.67680419     0              0.67680419     177314.22    
        20   0              0.67680419     0              0.67680419     177314.22    
        21   0              0.67680419     0              0.67680419     177314.22    
        22   0              0.67680419     0              0.67680419     177314.22    
        23   0              0.67680419     0              0.67680419     177314.22    
        24   0              0.67680419     0              0.67680419     177314.22    
        25   0              0.67680419     0              0.67680419     177314.22    
        26   0              0.67680419     0              0.67680419     177314.22    
        27   0              0.67680419     0              0.67680419     177314.22    
        28   0              0.67680419     0              0.67680419     177314.22    
        29   0              0.67680419     0              0.67680419     177314.22    
        30   0              0.67680419     0              0.67680419     177314.22    
        31   0              0.67680419     0              0.67680419     177314.22    
        32   0              0.67680419     0              0.67680419     177314.22    
        33   0              0.67680419     0              0.67680419     177314.22    
        34   0              0.67680419     0              0.67680419     177314.22    
        35   0              0.67680419     0              0.67680419     177314.22    
        36   0              0.67680419     0              0.67680419     177314.22    
        37   0              0.67680419     0              0.67680419     177314.22    
        38   0              0.67680419     0              0.67680419     177314.22    
        39   0              0.67680419     0              0.67680419     177314.22    
        40   0              0.67680419     0              0.67680419     177314.22    
        41   0              0.67680419     0              0.67680419     177314.22    
        42   0              0.67680419     0              0.67680419     177314.22    
        43   0              0.67680419     0              0.67680419     177314.22    
        44   0              0.67680419     0              0.67680419     177314.22    
        45   0              0.67680419     0              0.67680419     177314.22    
        46   0              0.67680419     0              0.67680419     177314.22    
        47   0              0.67680419     0              0.67680419     177314.22    
        48   0              0.67680419     0              0.67680419     177314.22    
        49   0              0.67680419     0              0.67680419     177314.22    
        50   0              0.67680419     0              0.67680419     177314.22    
        51   0              0.67680419     0              0.67680419     177314.22    
        52   0              0.67680419     0              0.67680419     177314.22    
        53   0              0.67680419     0              0.67680419     177314.22    
        54   0              0.67680419     0              0.67680419     177314.22    
        55   0              0.67680419     0              0.67680419     177314.22    
        56   0              0.67680419     0              0.67680419     177314.22    
        57   0              0.67680419     0              0.67680419     177314.22    
        58   0              0.67680419     0              0.67680419     177314.22    
        59   0              0.67680419     0              0.67680419     177314.22    
        60   0              0.67680419     0              0.67680419     177314.22    
        61   0              0.67680419     0              0.67680419     177314.22    
        62   0              0.67680419     0              0.67680419     177314.22    
        63   0              0.67680419     0              0.67680419     177314.22    
        64   0              0.67680419     0              0.67680419     177314.22    
        65   0              0.67680419     0              0.67680419     177314.22    
        66   0              0.67680419     0              0.67680419     177314.22    
        67   0              0.67680419     0              0.67680419     177314.22    
        68   0              0.67680419     0              0.67680419     177314.22    
        69   0              0.67680419     0              0.67680419     177314.22    
        70   0              0.67680419     0              0.67680419     177314.22    
        71   0              0.67680419     0              0.67680419     177314.22    
        72   0              0.67680419     0              0.67680419     177314.22    
        73   0              0.67680419     0              0.67680419     177314.22    
        74   0              0.67680419     0              0.67680419     177314.22    
        75   0              0.67680419     0              0.67680419     177314.22    
        76   0              0.67680419     0              0.67680419     177314.22    
        77   0              0.67680419     0              0.67680419     177314.22    
        78   0              0.67680419     0              0.67680419     177314.22    
        79   0              0.67680419     0              0.67680419     177314.22    
        80   0              0.67680419     0              0.67680419     177314.22    
        81   0              0.67680419     0              0.67680419     177314.22    
        82   0              0.67680419     0              0.67680419     177314.22    
        83   0              0.67680419     0              0.67680419     177314.22    
        84   0              0.67680419     0              0.67680419     177314.22    
        85   0              0.67680419     0              0.67680419     177314.22    
        86   0              0.67680419     0              0.67680419     177314.22    
        87   0              0.67680419     0              0.67680419     177314.22    
        88   0              0.67680419     0              0.67680419     177314.22    
        89   0              0.67680419     0              0.67680419     177314.22    
        90   0              0.67680419     0              0.67680419     177314.22    
        91   0              0.67680419     0              0.67680419     177314.22    
        92   0              0.67680419     0              0.67680419     177314.22    
        93   0              0.67680419     0              0.67680419     177314.22    
        94   0              0.67680419     0              0.67680419     177314.22    
        95   0              0.67680419     0              0.67680419     177314.22    
        96   0              0.67680419     0              0.67680419     177314.22    
        97   0              0.67680419     0              0.67680419     177314.22    
        98   0              0.67680419     0              0.67680419     177314.22    
        99   0              0.67680419     0              0.67680419     177314.22    
       100   0              0.67680419     0              0.67680419     177314.22    
Loop time of 0.367086 on 1 procs for 100 steps with 107 atoms

Performance: 239.616 ns/day, 0.100 hours/ns, 272.416 timesteps/s
92.9% CPU use with 1 MPI tasks x no OpenMP threads

MPI task timing breakdown:
Section |  min time  |  avg time  |  max time  |%varavg| %total
---------------------------------------------------------------
Pair    | 0.36617    | 0.36617    | 0.36617    |   0.0 | 99.75
Neigh   | 0          | 0          | 0          |   0.0 |  0.00
Comm    | 0.00040255 | 0.00040255 | 0.00040255 |   0.0 |  0.11
Output  | 0.00039988 | 0.00039988 | 0.00039988 |   0.0 |  0.11
Modify  | 1.4211e-05 | 1.4211e-05 | 1.4211e-05 |   0.0 |  0.00
Other   |            | 0.0001021  |            |       |  0.03

Nlocal:            107 ave         107 max         107 min
Histogram: 1 0 0 0 0 0 0 0 0 0
Nghost:            983 ave         983 max         983 min
Histogram: 1 0 0 0 0 0 0 0 0 0
Neighs:              0 ave           0 max           0 min
Histogram: 1 0 0 0 0 0 0 0 0 0
FullNghs:         8268 ave        8268 max        8268 min
Histogram: 1 0 0 0 0 0 0 0 0 0

Total # of neighbors = 8268
Ave neighs/atom = 77.271028
Neighbor list builds = 0
Dangerous builds = 0
WARNING: Using 'neigh_modify every 1 delay 0 check yes' setting during minimization (src/min.cpp:187)
Setting up quickmin style minimization ...
  Unit style    : metal
  Current step  : 0
Per MPI rank memory allocation (min/avg/max) = 12.15 | 12.15 | 12.15 Mbytes
   Step          Temp          E_pair         E_mol          TotEng         Press     
         0   0              1.0128518      0              1.0128518      177210.71    
         1   0.90405466     1.0128518      0              1.0252387      177221.13    
         2   3.6162186      0.98975788     0              1.0393058      177203.7     
         3   7.4422214      0.95270133     0              1.0546715      177160.92    
         4   10.944933      0.91748977     0              1.0674526      177097.24    
         5   12.400805      0.89463153     0              1.0645421      177004.88    
         6   10.877893      0.88264851     0              1.0316928      176896.21    
         7   6.2755337      0.87802253     0              0.96400723     176782.62    
         8   0.020921488    0.87802253     0              0.87830919     176710.56    
         9   0.083685953    0.87745783     0              0.87860446     176709.91    
        10   0.17176125     0.87656059     0              0.87891399     176707.7     
        11   0.25425004     0.87561353     0              0.87909716     176700.9     
        12   0.20403971     0.87474351     0              0.87753917     176688.88    
        13   0.2453794      0.87377532     0              0.8771374      176678.66    
        14   0.28554711     0.87268941     0              0.87660186     176666.94    
        15   0.27620331     0.87160138     0              0.8753858      176659.44    
        16   0.019963673    0.87139113     0              0.87166466     176654.79    
        17   0.021104464    0.87106882     0              0.87135799     176652.33    
        18   0.012074394    0.87076175     0              0.87092719     176650.93    
        19   0.013925622    0.87038661     0              0.87057742     176649.24    
        20   0.016986336    0.86992483     0              0.87015757     176647.67    
        21   0.019513864    0.86937741     0              0.86964478     176645.9     
        22   0.016563475    0.868899       0              0.86912594     176645.21    
        23   0.0010948942   0.86884371     0              0.86885871     176644.86    
        24   0.0017533011   0.86872697     0              0.868751       176644.58    
        25   0.001533249    0.86854773     0              0.86856874     176644.29    
        26   0.0019570517   0.86832397     0              0.86835079     176644.05    
        27   0.0025259406   0.86805008     0              0.86808469     176643.79    
        28   0.0031207061   0.86772296     0              0.86776572     176643.6     
        29   0.003623719    0.86734758     0              0.86739723     176643.42    
        30   0.0031429994   0.86702141     0              0.86706448     176643.53    
        31   0.00014318995  0.86699887     0              0.86700083     176643.48    
        32   0.00026632286  0.86694502     0              0.86694867     176643.45    
        33   0.00026906982  0.86685018     0              0.86685387     176643.45    
        34   0.0002934154   0.86673878     0              0.8667428      176643.49    
        35   0.00037359627  0.86660672     0              0.86661184     176643.54    
        36   0.00045890322  0.86645461     0              0.8664609      176643.62    
        37   0.00053361076  0.86628549     0              0.8662928      176643.71    
        38   0.00054297295  0.86611703     0              0.86612447     176643.85    
        39   0.00023892789  0.86603401     0              0.86603728     176643.87    
        40   1.4758124e-05  0.86602201     0              0.86602221     176643.89    
        41   2.7681222e-05  0.86599642     0              0.8659968      176643.92    
        42   3.6632134e-05  0.86595701     0              0.86595752     176643.95    
        43   4.9447082e-05  0.86590731     0              0.86590799     176644       
        44   6.592144e-05   0.86584751     0              0.86584841     176644.05    
        45   8.318183e-05   0.86577807     0              0.86577921     176644.11    
        46   0.00010039563  0.86569957     0              0.86570095     176644.19    
        47   0.00011665669  0.86561273     0              0.86561433     176644.27    
Loop time of 0.424125 on 1 procs for 47 steps with 107 atoms

92.8% CPU use with 1 MPI tasks x no OpenMP threads

Minimization stats:
  Stopping criterion = force tolerance
  Energy initial, next-to-last, final = 
      1.01285176282363  0.865699573971116  0.865612730178314
  Force two-norm initial, final = 1.2547052 0.00086836292
  Force max component initial, final = 0.36226637 0.00027678896
  Final line search alpha, max atom move = 0 0
  Iterations, force evaluations = 47 47

MPI task timing breakdown:
Section |  min time  |  avg time  |  max time  |%varavg| %total
---------------------------------------------------------------
Pair    | 0.21915    | 0.21915    | 0.21915    |   0.0 | 51.67
Neigh   | 0          | 0          | 0          |   0.0 |  0.00
Comm    | 0.00024146 | 0.00024146 | 0.00024146 |   0.0 |  0.06
Output  | 0.00039196 | 0.00039196 | 0.00039196 |   0.0 |  0.09
Modify  | 0.20245    | 0.20245    | 0.20245    |   0.0 | 47.73
Other   |            | 0.001893   |            |       |  0.45

Nlocal:            107 ave         107 max         107 min
Histogram: 1 0 0 0 0 0 0 0 0 0
Nghost:            983 ave         983 max         983 min
Histogram: 1 0 0 0 0 0 0 0 0 0
Neighs:              0 ave           0 max           0 min
Histogram: 1 0 0 0 0 0 0 0 0 0
FullNghs:         8272 ave        8272 max        8272 min
Histogram: 1 0 0 0 0 0 0 0 0 0

Total # of neighbors = 8272
Ave neighs/atom = 77.308411
Neighbor list builds = 0
Dangerous builds = 0
WARNING: Using 'neigh_modify every 1 delay 0 check yes' setting during minimization (src/min.cpp:187)
Setting up quickmin style minimization ...
  Unit style    : metal
  Current step  : 47
Per MPI rank memory allocation (min/avg/max) = 12.15 | 12.15 | 12.15 Mbytes
   Step          Temp          E_pair         E_mol          TotEng         Press     
        47   0              0.86561273     0              0.86561273     176644.27    
        48   4.3302588e-07  0.86561273     0              0.86561274     176644.27    
Loop time of 0.0208746 on 1 procs for 1 steps with 107 atoms

92.2% CPU use with 1 MPI tasks x no OpenMP threads

Minimization stats:
  Stopping criterion = force tolerance
  Energy initial, next-to-last, final = 
     0.865612730178308  0.865612730178308  0.865612730178308
  Force two-norm initial, final = 0.00086836292 0.00086836292
  Force max component initial, final = 0.00027678896 0.00027678896
  Final line search alpha, max atom move = 0 0
  Iterations, force evaluations = 1 1

MPI task timing breakdown:
Section |  min time  |  avg time  |  max time  |%varavg| %total
---------------------------------------------------------------
Pair    | 0.01068    | 0.01068    | 0.01068    |   0.0 | 51.16
Neigh   | 0          | 0          | 0          |   0.0 |  0.00
Comm    | 8.083e-06  | 8.083e-06  | 8.083e-06  |   0.0 |  0.04
Output  | 0          | 0          | 0          |   0.0 |  0.00
Modify  | 0.0099907  | 0.0099907  | 0.0099907  |   0.0 | 47.86
Other   |            | 0.0001959  |            |       |  0.94

Nlocal:            107 ave         107 max         107 min
Histogram: 1 0 0 0 0 0 0 0 0 0
Nghost:            983 ave         983 max         983 min
Histogram: 1 0 0 0 0 0 0 0 0 0
Neighs:              0 ave           0 max           0 min
Histogram: 1 0 0 0 0 0 0 0 0 0
FullNghs:         8288 ave        8288 max        8288 min
Histogram: 1 0 0 0 0 0 0 0 0 0

Total # of neighbors = 8288
Ave neighs/atom = 77.457944
Neighbor list builds = 0
Dangerous builds = 0
System init for write_data ...
Total wall time: 0:00:00
