LAMMPS (23 Jun 2022)
Processor partition = 2
Reading data file ...
  orthogonal box = (0 0 0) to (10.83 10.83 10.83)
  1 by 1 by 1 MPI processor grid
  reading atoms ...
  107 atoms
  read_data CPU = 0.008 seconds
SNAP keyword rcutfac 4.2 
SNAP keyword twojmax 4 
SNAP keyword rfac0 0.99363 
SNAP keyword rmin0 0.0 
SNAP keyword chemflag 0 
SNAP keyword bnormflag 0 
SNAP keyword switchflag 1 
SNAP keyword bzeroflag 1 
SNAP keyword wselfallflag 0 
SNAP keyword nelems 1 
SNAP keyword elems       Cu 
SNAP keyword radelems    0.5 
SNAP keyword welems      1.0 
WARNING: No fixes with time integration, atoms won't move (src/verlet.cpp:60)
Neighbor list info ...
  update every 2 steps, delay 10 steps, check yes
  max neighbors/atom: 100000, page size: 1000000
  master list distance cutoff = 6.2
  ghost atom cutoff = 6.2
  binsize = 3.1, bins = 4 4 4
  1 neighbor lists, perpetual/occasional/extra = 1 0 0
  (1) pair mliap, perpetual
      attributes: full, newton on
      pair build: full/bin/atomonly
      stencil: full/bin/3d
      bin: standard
Setting up Verlet run ...
  Unit style    : metal
  Current step  : 0
  Time step     : 0.010180505671156723
Per MPI rank memory allocation (min/avg/max) = 12.14 | 12.14 | 12.14 Mbytes
   Step          Temp          E_pair         E_mol          TotEng         Press     
         0   0              0.67680419     0              0.67680419     177314.22    
         1   0              0.67680419     0              0.67680419     177314.22    
         2   0              0.67680419     0              0.67680419     177314.22    
         3   0              0.67680419     0              0.67680419     177314.22    
         4   0              0.67680419     0              0.67680419     177314.22    
         5   0              0.67680419     0              0.67680419     177314.22    
         6   0              0.67680419     0              0.67680419     177314.22    
         7   0              0.67680419     0              0.67680419     177314.22    
         8   0              0.67680419     0              0.67680419     177314.22    
         9   0              0.67680419     0              0.67680419     177314.22    
        10   0              0.67680419     0              0.67680419     177314.22    
        11   0              0.67680419     0              0.67680419     177314.22    
        12   0              0.67680419     0              0.67680419     177314.22    
        13   0              0.67680419     0              0.67680419     177314.22    
        14   0              0.67680419     0              0.67680419     177314.22    
        15   0              0.67680419     0              0.67680419     177314.22    
        16   0              0.67680419     0              0.67680419     177314.22    
        17   0              0.67680419     0              0.67680419     177314.22    
        18   0              0.67680419     0              0.67680419     177314.22    
        19   0              0.67680419     0              0.67680419     177314.22    
        20   0              0.67680419     0              0.67680419     177314.22    
        21   0              0.67680419     0              0.67680419     177314.22    
        22   0              0.67680419     0              0.67680419     177314.22    
        23   0              0.67680419     0              0.67680419     177314.22    
        24   0              0.67680419     0              0.67680419     177314.22    
        25   0              0.67680419     0              0.67680419     177314.22    
        26   0              0.67680419     0              0.67680419     177314.22    
        27   0              0.67680419     0              0.67680419     177314.22    
        28   0              0.67680419     0              0.67680419     177314.22    
        29   0              0.67680419     0              0.67680419     177314.22    
        30   0              0.67680419     0              0.67680419     177314.22    
        31   0              0.67680419     0              0.67680419     177314.22    
        32   0              0.67680419     0              0.67680419     177314.22    
        33   0              0.67680419     0              0.67680419     177314.22    
        34   0              0.67680419     0              0.67680419     177314.22    
        35   0              0.67680419     0              0.67680419     177314.22    
        36   0              0.67680419     0              0.67680419     177314.22    
        37   0              0.67680419     0              0.67680419     177314.22    
        38   0              0.67680419     0              0.67680419     177314.22    
        39   0              0.67680419     0              0.67680419     177314.22    
        40   0              0.67680419     0              0.67680419     177314.22    
        41   0              0.67680419     0              0.67680419     177314.22    
        42   0              0.67680419     0              0.67680419     177314.22    
        43   0              0.67680419     0              0.67680419     177314.22    
        44   0              0.67680419     0              0.67680419     177314.22    
        45   0              0.67680419     0              0.67680419     177314.22    
        46   0              0.67680419     0              0.67680419     177314.22    
        47   0              0.67680419     0              0.67680419     177314.22    
        48   0              0.67680419     0              0.67680419     177314.22    
        49   0              0.67680419     0              0.67680419     177314.22    
        50   0              0.67680419     0              0.67680419     177314.22    
        51   0              0.67680419     0              0.67680419     177314.22    
        52   0              0.67680419     0              0.67680419     177314.22    
        53   0              0.67680419     0              0.67680419     177314.22    
        54   0              0.67680419     0              0.67680419     177314.22    
        55   0              0.67680419     0              0.67680419     177314.22    
        56   0              0.67680419     0              0.67680419     177314.22    
        57   0              0.67680419     0              0.67680419     177314.22    
        58   0              0.67680419     0              0.67680419     177314.22    
        59   0              0.67680419     0              0.67680419     177314.22    
        60   0              0.67680419     0              0.67680419     177314.22    
        61   0              0.67680419     0              0.67680419     177314.22    
        62   0              0.67680419     0              0.67680419     177314.22    
        63   0              0.67680419     0              0.67680419     177314.22    
        64   0              0.67680419     0              0.67680419     177314.22    
        65   0              0.67680419     0              0.67680419     177314.22    
        66   0              0.67680419     0              0.67680419     177314.22    
        67   0              0.67680419     0              0.67680419     177314.22    
        68   0              0.67680419     0              0.67680419     177314.22    
        69   0              0.67680419     0              0.67680419     177314.22    
        70   0              0.67680419     0              0.67680419     177314.22    
        71   0              0.67680419     0              0.67680419     177314.22    
        72   0              0.67680419     0              0.67680419     177314.22    
        73   0              0.67680419     0              0.67680419     177314.22    
        74   0              0.67680419     0              0.67680419     177314.22    
        75   0              0.67680419     0              0.67680419     177314.22    
        76   0              0.67680419     0              0.67680419     177314.22    
        77   0              0.67680419     0              0.67680419     177314.22    
        78   0              0.67680419     0              0.67680419     177314.22    
        79   0              0.67680419     0              0.67680419     177314.22    
        80   0              0.67680419     0              0.67680419     177314.22    
        81   0              0.67680419     0              0.67680419     177314.22    
        82   0              0.67680419     0              0.67680419     177314.22    
        83   0              0.67680419     0              0.67680419     177314.22    
        84   0              0.67680419     0              0.67680419     177314.22    
        85   0              0.67680419     0              0.67680419     177314.22    
        86   0              0.67680419     0              0.67680419     177314.22    
        87   0              0.67680419     0              0.67680419     177314.22    
        88   0              0.67680419     0              0.67680419     177314.22    
        89   0              0.67680419     0              0.67680419     177314.22    
        90   0              0.67680419     0              0.67680419     177314.22    
        91   0              0.67680419     0              0.67680419     177314.22    
        92   0              0.67680419     0              0.67680419     177314.22    
        93   0              0.67680419     0              0.67680419     177314.22    
        94   0              0.67680419     0              0.67680419     177314.22    
        95   0              0.67680419     0              0.67680419     177314.22    
        96   0              0.67680419     0              0.67680419     177314.22    
        97   0              0.67680419     0              0.67680419     177314.22    
        98   0              0.67680419     0              0.67680419     177314.22    
        99   0              0.67680419     0              0.67680419     177314.22    
       100   0              0.67680419     0              0.67680419     177314.22    
Loop time of 0.338615 on 1 procs for 100 steps with 107 atoms

Performance: 259.763 ns/day, 0.092 hours/ns, 295.320 timesteps/s
97.8% CPU use with 1 MPI tasks x no OpenMP threads

MPI task timing breakdown:
Section |  min time  |  avg time  |  max time  |%varavg| %total
---------------------------------------------------------------
Pair    | 0.33777    | 0.33777    | 0.33777    |   0.0 | 99.75
Neigh   | 0          | 0          | 0          |   0.0 |  0.00
Comm    | 0.00035817 | 0.00035817 | 0.00035817 |   0.0 |  0.11
Output  | 0.00037845 | 0.00037845 | 0.00037845 |   0.0 |  0.11
Modify  | 1.1705e-05 | 1.1705e-05 | 1.1705e-05 |   0.0 |  0.00
Other   |            | 0.0001004  |            |       |  0.03

Nlocal:            107 ave         107 max         107 min
Histogram: 1 0 0 0 0 0 0 0 0 0
Nghost:            983 ave         983 max         983 min
Histogram: 1 0 0 0 0 0 0 0 0 0
Neighs:              0 ave           0 max           0 min
Histogram: 1 0 0 0 0 0 0 0 0 0
FullNghs:         8268 ave        8268 max        8268 min
Histogram: 1 0 0 0 0 0 0 0 0 0

Total # of neighbors = 8268
Ave neighs/atom = 77.271028
Neighbor list builds = 0
Dangerous builds = 0
WARNING: Using 'neigh_modify every 1 delay 0 check yes' setting during minimization (src/min.cpp:187)
Setting up quickmin style minimization ...
  Unit style    : metal
  Current step  : 0
Per MPI rank memory allocation (min/avg/max) = 12.15 | 12.15 | 12.15 Mbytes
   Step          Temp          E_pair         E_mol          TotEng         Press     
         0   0              1.4498668      0              1.4498668      178074.7     
         1   2.0098934      1.4498668      0              1.4774055      178097.86    
         2   8.0395735      1.3980661      0              1.5082209      178166.02    
         3   16.612779      1.3136859      0              1.5413071      178254.2     
         4   24.409372      1.2324562      0              1.566903       178296.76    
         5   26.636984      1.1806763      0              1.5456449      178195.81    
         6   20.250709      1.1569994      0              1.434466       177953.47    
         7   9.2592951      1.1504001      0              1.277267       177745.12    
         8   0.033144065    1.1504001      0              1.1508542      177638.82    
         9   0.13257626     1.149552       0              1.1513685      177634.12    
        10   0.26552477     1.1482909      0              1.151929       177623.6     
        11   0.35013941     1.1472404      0              1.1520378      177605.7     
        12   0.22911301     1.1464847      0              1.1496239      177588.05    
        13   0.26565449     1.1457688      0              1.1494087      177571.34    
        14   0.28957301     1.145143       0              1.1491106      177552.93    
        15   0.23396742     1.1447088      0              1.1479145      177537.1     
        16   0.0075562385   1.14465        0              1.1447535      177532.76    
        17   0.013240306    1.1445612      0              1.1447426      177529.46    
        18   0.0085160179   1.1444846      0              1.1446012      177526.61    
        19   0.010010001    1.1443976      0              1.1445348      177523.43    
        20   0.011481761    1.1442994      0              1.1444567      177519.87    
        21   0.011600045    1.1441923      0              1.1443512      177516.17    
        22   0.0062498403   1.1441045      0              1.1441902      177513.31    
        23   0.00014599062  1.1440955      0              1.1440975      177513       
        24   0.00037930917  1.1440754      0              1.1440806      177512.47    
        25   0.00067695718  1.144044       0              1.1440533      177511.64    
        26   0.00085986602  1.1440051      0              1.1440168      177510.64    
        27   0.0010405589   1.1439576      0              1.1439719      177509.5     
        28   0.0011703465   1.1439012      0              1.1439172      177508.24    
        29   0.0011847517   1.1438361      0              1.1438523      177506.93    
        30   0.00069575124  1.1437788      0              1.1437883      177505.91    
        31   9.0953117e-06  1.1437749      0              1.143775       177505.84    
        32   2.5903336e-05  1.1437654      0              1.1437657      177505.69    
        33   5.9204817e-05  1.1437484      0              1.1437492      177505.44    
        34   7.2460196e-05  1.1437284      0              1.1437294      177505.14    
        35   9.0602126e-05  1.1437044      0              1.1437056      177504.8     
        36   0.00010754831  1.1436765      0              1.143678       177504.41    
        37   0.00011971878  1.1436452      0              1.1436468      177504.01    
        38   0.00010873966  1.1436134      0              1.1436149      177503.62    
        39   2.7804926e-05  1.1435975      0              1.1435979      177503.43    
        40   1.5531478e-06  1.1435952      0              1.1435952      177503.4     
        41   3.9279643e-06  1.1435902      0              1.1435903      177503.35    
        42   7.3680704e-06  1.1435825      0              1.1435826      177503.26    
        43   1.047385e-05   1.1435728      0              1.143573       177503.16    
        44   1.3918342e-05  1.1435611      0              1.1435612      177503.03    
        45   1.7505421e-05  1.1435473      0              1.1435475      177502.88    
        46   2.1067351e-05  1.1435316      0              1.1435319      177502.72    
        47   2.443763e-05   1.143514       0              1.1435143      177502.54    
Loop time of 0.424126 on 1 procs for 47 steps with 107 atoms

95.4% CPU use with 1 MPI tasks x no OpenMP threads

Minimization stats:
  Stopping criterion = force tolerance
  Energy initial, next-to-last, final = 
       1.4498667595733   1.14353157035238   1.14351396513145
  Force two-norm initial, final = 1.8708151 0.00039665486
  Force max component initial, final = 0.6506998 0.00011406222
  Final line search alpha, max atom move = 0 0
  Iterations, force evaluations = 47 47

MPI task timing breakdown:
Section |  min time  |  avg time  |  max time  |%varavg| %total
---------------------------------------------------------------
Pair    | 0.2144     | 0.2144     | 0.2144     |   0.0 | 50.55
Neigh   | 0          | 0          | 0          |   0.0 |  0.00
Comm    | 0.00027375 | 0.00027375 | 0.00027375 |   0.0 |  0.06
Output  | 0.000384   | 0.000384   | 0.000384   |   0.0 |  0.09
Modify  | 0.20531    | 0.20531    | 0.20531    |   0.0 | 48.41
Other   |            | 0.003758   |            |       |  0.89

Nlocal:            107 ave         107 max         107 min
Histogram: 1 0 0 0 0 0 0 0 0 0
Nghost:            983 ave         983 max         983 min
Histogram: 1 0 0 0 0 0 0 0 0 0
Neighs:              0 ave           0 max           0 min
Histogram: 1 0 0 0 0 0 0 0 0 0
FullNghs:         8276 ave        8276 max        8276 min
Histogram: 1 0 0 0 0 0 0 0 0 0

Total # of neighbors = 8276
Ave neighs/atom = 77.345794
Neighbor list builds = 0
Dangerous builds = 0
WARNING: Using 'neigh_modify every 1 delay 0 check yes' setting during minimization (src/min.cpp:187)
Setting up quickmin style minimization ...
  Unit style    : metal
  Current step  : 47
Per MPI rank memory allocation (min/avg/max) = 12.15 | 12.15 | 12.15 Mbytes
   Step          Temp          E_pair         E_mol          TotEng         Press     
        47   0              1.143514       0              1.143514       177502.54    
        48   9.035181e-08   1.143514       0              1.143514       177502.54    
Loop time of 0.0208761 on 1 procs for 1 steps with 107 atoms

99.5% CPU use with 1 MPI tasks x no OpenMP threads

Minimization stats:
  Stopping criterion = force tolerance
  Energy initial, next-to-last, final = 
      1.14351396513144   1.14351396513144   1.14351396513144
  Force two-norm initial, final = 0.00039665486 0.00039665486
  Force max component initial, final = 0.00011406222 0.00011406222
  Final line search alpha, max atom move = 0 0
  Iterations, force evaluations = 1 1

MPI task timing breakdown:
Section |  min time  |  avg time  |  max time  |%varavg| %total
---------------------------------------------------------------
Pair    | 0.0049944  | 0.0049944  | 0.0049944  |   0.0 | 23.92
Neigh   | 0          | 0          | 0          |   0.0 |  0.00
Comm    | 5e-06      | 5e-06      | 5e-06      |   0.0 |  0.02
Output  | 0          | 0          | 0          |   0.0 |  0.00
Modify  | 0.015682   | 0.015682   | 0.015682   |   0.0 | 75.12
Other   |            | 0.0001948  |            |       |  0.93

Nlocal:            107 ave         107 max         107 min
Histogram: 1 0 0 0 0 0 0 0 0 0
Nghost:            983 ave         983 max         983 min
Histogram: 1 0 0 0 0 0 0 0 0 0
Neighs:              0 ave           0 max           0 min
Histogram: 1 0 0 0 0 0 0 0 0 0
FullNghs:         8300 ave        8300 max        8300 min
Histogram: 1 0 0 0 0 0 0 0 0 0

Total # of neighbors = 8300
Ave neighs/atom = 77.570093
Neighbor list builds = 0
Dangerous builds = 0
System init for write_data ...
Total wall time: 0:00:00
