107
Lattice="10.83 0.0 0.0 0.0 10.83 0.0 0.0 0.0 10.83" Properties=species:S:1:pos:R:3 energy=0.574603209730515 pbc="T T T"
Cu       0.00000000       1.79531766       1.79531766
Cu       1.79531766       0.00000000       1.79531766
Cu       1.79531766       1.79531766       0.00000000
Cu       0.00000000       0.00000000       3.61579884
Cu       0.00000000       1.80664983       5.41500000
Cu       1.80664983       0.00000000       5.41500000
Cu       1.80302233       1.80302233       3.60809623
Cu       0.00000000       0.00000000       7.21420116
Cu       0.00000000       1.79531766       9.03468234
Cu       1.79531766       0.00000000       9.03468234
Cu       1.80302233       1.80302233       7.22190377
Cu       0.00000000       3.61579884       0.00000000
Cu       0.00000000       5.41500000       1.80664983
Cu       1.80302233       3.60809623       1.80302233
Cu       1.80664983       5.41500000       0.00000000
Cu       0.00000000       3.60444783       3.60444783
Cu       0.00000000       5.41500000       5.41500000
Cu       1.80390333       3.60946596       5.41500000
Cu       1.80390333       5.41500000       3.60946596
Cu       0.00000000       3.60444783       7.22555217
Cu       0.00000000       5.41500000       9.02335017
Cu       1.80302233       3.60809623       9.02697767
Cu       1.80390333       5.41500000       7.22053404
Cu       0.00000000       7.21420116       0.00000000
Cu       0.00000000       9.03468234       1.79531766
Cu       1.80302233       7.22190377       1.80302233
Cu       1.79531766       9.03468234       0.00000000
Cu       0.00000000       7.22555217       3.60444783
Cu       0.00000000       9.02335017       5.41500000
Cu       1.80390333       7.22053404       5.41500000
Cu       1.80302233       9.02697767       3.60809623
Cu       0.00000000       7.22555217       7.22555217
Cu       0.00000000       9.03468234       9.03468234
Cu       1.80302233       7.22190377       9.02697767
Cu       1.80302233       9.02697767       7.22190377
Cu       3.61579884       0.00000000       0.00000000
Cu       3.60809623       1.80302233       1.80302233
Cu       5.41500000       0.00000000       1.80664983
Cu       5.41500000       1.80664983       0.00000000
Cu       3.60444783       0.00000000       3.60444783
Cu       3.60946596       1.80390333       5.41500000
Cu       5.41500000       0.00000000       5.41500000
Cu       5.41500000       1.80390333       3.60946596
Cu       3.60444783       0.00000000       7.22555217
Cu       3.60809623       1.80302233       9.02697767
Cu       5.41500000       0.00000000       9.02335017
Cu       5.41500000       1.80390333       7.22053404
Cu       3.60444783       3.60444783       0.00000000
Cu       3.60946596       5.41500000       1.80390333
Cu       5.41500000       3.60946596       1.80390333
Cu       5.41500000       5.41500000       0.00000000
Cu       3.60901632       3.60901632       3.60901632
Cu       3.60950601       5.41500000       5.41500000
Cu       5.41500000       3.60950601       5.41500000
Cu       5.41500000       5.41500000       3.60950601
Cu       3.60901632       3.60901632       7.22098368
Cu       3.60946596       5.41500000       9.02609667
Cu       5.41500000       3.60946596       9.02609667
Cu       5.41500000       5.41500000       7.22049399
Cu       3.60444783       7.22555217       0.00000000
Cu       3.60809623       9.02697767       1.80302233
Cu       5.41500000       7.22053404       1.80390333
Cu       5.41500000       9.02335017       0.00000000
Cu       3.60901632       7.22098368       3.60901632
Cu       3.60946596       9.02609667       5.41500000
Cu       5.41500000       7.22049399       5.41500000
Cu       5.41500000       9.02609667       3.60946596
Cu       3.60901632       7.22098368       7.22098368
Cu       3.60809623       9.02697767       9.02697767
Cu       5.41500000       7.22053404       9.02609667
Cu       5.41500000       9.02609667       7.22053404
Cu       7.21420116       0.00000000       0.00000000
Cu       7.22190377       1.80302233       1.80302233
Cu       9.03468234       0.00000000       1.79531766
Cu       9.03468234       1.79531766       0.00000000
Cu       7.22555217       0.00000000       3.60444783
Cu       7.22053404       1.80390333       5.41500000
Cu       9.02335017       0.00000000       5.41500000
Cu       9.02697767       1.80302233       3.60809623
Cu       7.22555217       0.00000000       7.22555217
Cu       7.22190377       1.80302233       9.02697767
Cu       9.03468234       0.00000000       9.03468234
Cu       9.02697767       1.80302233       7.22190377
Cu       7.22555217       3.60444783       0.00000000
Cu       7.22053404       5.41500000       1.80390333
Cu       9.02697767       3.60809623       1.80302233
Cu       9.02335017       5.41500000       0.00000000
Cu       7.22098368       3.60901632       3.60901632
Cu       7.22049399       5.41500000       5.41500000
Cu       9.02609667       3.60946596       5.41500000
Cu       9.02609667       5.41500000       3.60946596
Cu       7.22098368       3.60901632       7.22098368
Cu       7.22053404       5.41500000       9.02609667
Cu       9.02697767       3.60809623       9.02697767
Cu       9.02609667       5.41500000       7.22053404
Cu       7.22555217       7.22555217       0.00000000
Cu       7.22190377       9.02697767       1.80302233
Cu       9.02697767       7.22190377       1.80302233
Cu       9.03468234       9.03468234       0.00000000
Cu       7.22098368       7.22098368       3.60901632
Cu       7.22053404       9.02609667       5.41500000
Cu       9.02609667       7.22053404       5.41500000
Cu       9.02697767       9.02697767       3.60809623
Cu       7.22098368       7.22098368       7.22098368
Cu       7.22190377       9.02697767       9.02697767
Cu       9.02697767       7.22190377       9.02697767
Cu       9.02697767       9.02697767       7.22190377
107
Lattice="10.83 0.0 0.0 0.0 10.83 0.0 0.0 0.0 10.83" Properties=species:S:1:pos:R:3 energy=0.782136373623405 pbc="T T T"
Cu      -0.00000144       1.61334569       1.61334569
Cu       1.85524323       0.03661032       1.86539343
Cu       1.85524323       1.86539343       0.03661032
Cu      -0.00000018       0.06911800       3.65057757
Cu      -0.00000006       1.86644090       5.47250469
Cu       1.80085483       0.06595746       5.47028672
Cu       1.78522717       1.85878032       3.64114137
Cu      -0.00000008       0.06523223       7.27987867
Cu      -0.00000003       1.84774803       9.11825916
Cu       1.79811356       0.06289615       9.10124856
Cu       1.79888603       1.86528897       7.28817203
Cu      -0.00000018       3.65057757       0.06911800
Cu      -0.00000006       5.47250469       1.86644090
Cu       1.78522717       3.64114137       1.85878032
Cu       1.80085483       5.47028672       0.06595746
Cu      -0.00000005       3.65422561       3.65422561
Cu      -0.00000004       5.47035055       5.47035055
Cu       1.79902841       3.66609023       5.47176062
Cu       1.79902841       5.47176062       3.66609023
Cu      -0.00000012       3.66164628       7.29207531
Cu      -0.00000013       5.47196818       9.09215551
Cu       1.80488145       3.67256644       9.08760330
Cu       1.79920475       5.47661279       7.28156499
Cu      -0.00000008       7.27987867       0.06523223
Cu      -0.00000003       9.11825916       1.84774803
Cu       1.79888603       7.28817203       1.86528897
Cu       1.79811356       9.10124856       0.06289615
Cu      -0.00000012       7.29207531       3.66164628
Cu      -0.00000013       9.09215551       5.47196818
Cu       1.79920475       7.28156499       5.47661279
Cu       1.80488145       9.08760330       3.67256644
Cu      -0.00000003       7.28827394       7.28827394
Cu      -0.00000012       9.10039860       9.10039860
Cu       1.79950519       7.28395955       9.09168615
Cu       1.79950519       9.09168615       7.28395955
Cu       3.63474768       0.05666275       0.05666275
Cu       3.62172136       1.86594675       1.86594675
Cu       5.41500012       0.05855685       1.87333479
Cu       5.41500012       1.87333479       0.05855685
Cu       3.61158019       0.06212892       3.67490968
Cu       3.59927397       1.86815485       5.47188476
Cu       5.41500014       0.06390738       5.48160282
Cu       5.41500017       1.86956211       3.67714298
Cu       3.60072013       0.06347449       7.28438302
Cu       3.61998395       1.86957685       9.07790119
Cu       5.41500023       0.06082168       9.07734893
Cu       5.41500019       1.86933107       7.27314273
Cu       3.61158019       3.67490968       0.06212892
Cu       3.59927397       5.47188476       1.86815485
Cu       5.41500017       3.67714298       1.86956211
Cu       5.41500014       5.48160282       0.06390738
Cu       3.60205677       3.66956248       3.66956248
Cu       3.60512535       5.47632870       5.47632870
Cu       5.41500004       3.67332999       5.47519618
Cu       5.41500004       5.47519618       3.67332999
Cu       3.60645461       3.67405409       7.27867433
Cu       3.60680154       5.48016657       9.08757761
Cu       5.41500013       3.67899649       9.08347972
Cu       5.41500005       5.47938740       7.28098551
Cu       3.60072013       7.28438302       0.06347449
Cu       3.61998395       9.07790119       1.86957685
Cu       5.41500019       7.27314273       1.86933107
Cu       5.41500023       9.07734893       0.06082168
Cu       3.60645461       7.27867433       3.67405409
Cu       3.60680154       9.08757761       5.48016657
Cu       5.41500005       7.28098551       5.47938740
Cu       5.41500013       9.08347972       3.67899649
Cu       3.60529587       7.28305780       7.28305780
Cu       3.60734391       9.08701424       9.08701424
Cu       5.41500002       7.28204622       9.08745679
Cu       5.41500002       9.08745679       7.28204622
Cu       7.19525175       0.05666259       0.05666259
Cu       7.20827831       1.86594683       1.86594683
Cu       8.97475813       0.03661147       1.86539318
Cu       8.97475813       1.86539318       0.03661147
Cu       7.21841936       0.06212908       3.67491000
Cu       7.23072584       1.86815476       5.47188468
Cu       9.02914533       0.06595744       5.47028664
Cu       9.04477304       1.85878019       3.64114136
Cu       7.22927969       0.06347461       7.28438315
Cu       7.21001544       1.86957671       9.07790072
Cu       9.03188660       0.06289595       9.10124830
Cu       9.03111409       1.86528898       7.28817208
Cu       7.21841936       3.67491000       0.06212908
Cu       7.23072584       5.47188468       1.86815476
Cu       9.04477304       3.64114136       1.85878019
Cu       9.02914533       5.47028664       0.06595744
Cu       7.22794304       3.66956244       3.66956244
Cu       7.22487454       5.47632871       5.47632871
Cu       9.03097175       3.66609026       5.47176064
Cu       9.03097175       5.47176064       3.66609026
Cu       7.22354527       3.67405406       7.27867443
Cu       7.22319835       5.48016647       9.08757761
Cu       9.02511884       3.67256676       9.08760303
Cu       9.03079537       5.47661267       7.28156509
Cu       7.22927969       7.28438315       0.06347461
Cu       7.21001544       9.07790072       1.86957671
Cu       9.03111409       7.28817208       1.86528898
Cu       9.03188660       9.10124830       0.06289595
Cu       7.22354527       7.27867443       3.67405406
Cu       7.22319835       9.08757761       5.48016647
Cu       9.03079537       7.28156509       5.47661267
Cu       9.02511884       9.08760303       3.67256676
Cu       7.22470401       7.28305778       7.28305778
Cu       7.22265595       9.08701434       9.08701434
Cu       9.03049498       7.28395959       9.09168618
Cu       9.03049498       9.09168618       7.28395959
107
Lattice="10.83 0.0 0.0 0.0 10.83 0.0 0.0 0.0 10.83" Properties=species:S:1:pos:R:3 energy=0.795083357422694 pbc="T T T"
Cu       0.00001011       0.96938128       0.96938128
Cu       1.89483566       0.04118117       1.89757720
Cu       1.89483566       1.89757720       0.04118117
Cu       0.00000036       0.10936578       3.61063470
Cu       0.00000015       1.87005037       5.48101225
Cu       1.79314901       0.07036011       5.46924609
Cu       1.81061793       1.87288895       3.66471522
Cu       0.00000015       0.06870801       7.28774610
Cu       0.00000036       1.82939267       9.15812363
Cu       1.81061787       0.06586951       9.10404320
Cu       1.79314903       1.86839818       7.29951220
Cu       0.00000036       3.61063470       0.10936578
Cu       0.00000015       5.48101225       1.87005037
Cu       1.81061793       3.66471522       1.87288895
Cu       1.79314901       5.46924609       0.07036011
Cu       0.00000011       3.65067137       3.65067137
Cu       0.00000004       5.47325499       5.47325499
Cu       1.79665240       3.67178553       5.48007147
Cu       1.79665240       5.48007147       3.67178553
Cu       0.00000035       3.66147463       7.30403040
Cu       0.00000035       5.46472794       9.10728365
Cu       1.80496806       3.67698966       9.09176864
Cu       1.79571312       5.48143525       7.28732306
Cu       0.00000015       7.28774610       0.06870801
Cu       0.00000036       9.15812363       1.82939267
Cu       1.79314903       7.29951220       1.86839818
Cu       1.81061787       9.10404320       0.06586951
Cu       0.00000035       7.30403040       3.66147463
Cu       0.00000035       9.10728365       5.46472794
Cu       1.79571312       7.28732306       5.48143525
Cu       1.80496806       9.09176864       3.67698966
Cu       0.00000004       7.29550338       7.29550338
Cu       0.00000011       9.11808728       9.11808728
Cu       1.79665231       7.28868689       9.09697281
Cu       1.79665231       9.09697281       7.28868689
Cu       3.62463612       0.06419960       0.06419960
Cu       3.62463611       1.87455872       1.87455872
Cu       5.41499947       0.06251825       1.87624002
Cu       5.41499947       1.87624002       0.06251825
Cu       3.61961799       0.06309465       3.68651395
Cu       3.59790002       1.87201291       5.48086558
Cu       5.41499947       0.06686438       5.48954875
Cu       5.41499938       1.87402805       3.68476422
Cu       3.59789999       0.06674532       7.28789270
Cu       3.61961801       1.87566361       9.08224432
Cu       5.41499938       0.06473018       9.08399404
Cu       5.41499947       1.87189380       7.27920950
Cu       3.61961799       3.68651395       0.06309465
Cu       3.59790002       5.48086558       1.87201291
Cu       5.41499938       3.68476422       1.87402805
Cu       5.41499947       5.48954875       0.06686438
Cu       3.60889683       3.67891619       3.67891619
Cu       3.60345522       5.48176898       5.48176898
Cu       5.41499997       3.67769249       5.48280482
Cu       5.41499997       5.48280482       3.67769249
Cu       3.60485426       3.67811960       7.28311228
Cu       3.60485423       5.48564600       9.09063865
Cu       5.41499958       3.68397725       9.08478099
Cu       5.41499994       5.48384438       7.28491390
Cu       3.59789999       7.28789270       0.06674532
Cu       3.61961801       9.08224432       1.87566361
Cu       5.41499947       7.27920950       1.87189380
Cu       5.41499938       9.08399404       0.06473018
Cu       3.60485426       7.28311228       3.67811960
Cu       3.60485423       9.09063865       5.48564600
Cu       5.41499994       7.28491390       5.48384438
Cu       5.41499958       9.08478099       3.68397725
Cu       3.60345517       7.28698933       7.28698933
Cu       3.60889673       9.08984214       9.08984214
Cu       5.41499997       7.28595348       9.09106576
Cu       5.41499997       9.09106576       7.28595348
Cu       7.20536606       0.06420020       0.06420020
Cu       7.20536607       1.87455812       1.87455812
Cu       8.93515530       0.04117674       1.89758163
Cu       8.93515530       1.89758163       0.04117674
Cu       7.21038432       0.06309404       3.68651189
Cu       7.23210039       1.87201327       5.48086596
Cu       9.03685075       0.07036017       5.46924640
Cu       9.01938171       1.87288879       3.66471425
Cu       7.23210043       0.06674496       7.28789233
Cu       7.21038431       1.87566422       9.08224637
Cu       9.01938177       0.06586967       9.10404417
Cu       9.03685073       1.86839812       7.29951188
Cu       7.21038432       3.68651189       0.06309404
Cu       7.23210039       5.48086596       1.87201327
Cu       9.01938171       3.66471425       1.87288879
Cu       9.03685075       5.46924640       0.07036017
Cu       7.22110353       3.67891641       3.67891641
Cu       7.22654500       5.48176895       5.48176895
Cu       9.03334725       3.67178554       5.48007152
Cu       9.03334725       5.48007152       3.67178554
Cu       7.22514596       3.67811971       7.28311193
Cu       7.22514598       5.48564635       9.09063854
Cu       9.02503095       3.67698832       9.09176998
Cu       9.03428662       5.48143560       7.28732271
Cu       7.23210043       7.28789233       0.06674496
Cu       7.21038431       9.08224637       1.87566422
Cu       9.03685073       7.29951188       1.86839812
Cu       9.01938177       9.10404417       0.06586967
Cu       7.22514596       7.28311193       3.67811971
Cu       7.22514598       9.09063854       5.48564635
Cu       9.03428662       7.28732271       5.48143560
Cu       9.02503095       9.09176998       3.67698832
Cu       7.22654505       7.28698936       7.28698936
Cu       7.22110362       9.08984191       9.08984191
Cu       9.03334734       7.28868683       9.09697279
Cu       9.03334734       9.09697279       7.28868683
107
Lattice="10.83 0.0 0.0 0.0 10.83 0.0 0.0 0.0 10.83" Properties=species:S:1:pos:R:3 energy=0.784200190844126 pbc="T T T"
Cu      -0.00000030       0.91224336       0.91224336
Cu       1.89483963      -0.01590046       1.84050052
Cu       1.89483963       1.84050052      -0.01590046
Cu      -0.00000001       0.05228503       3.55355656
Cu      -0.00000000       1.81297078       5.42393298
Cu       1.79314945       0.01328131       5.41216786
Cu       1.81061733       1.81580824       3.60763486
Cu      -0.00000000       0.01162846       7.23066669
Cu      -0.00000001       1.77231318       9.10104415
Cu       1.81061820       0.00878929       9.04696385
Cu       1.79314906       1.81131960       7.24243327
Cu      -0.00000001       3.55355656       0.05228503
Cu      -0.00000000       5.42393298       1.81297078
Cu       1.81061733       3.60763486       1.81580824
Cu       1.79314945       5.41216786       0.01328131
Cu      -0.00000000       3.59358846       3.59358846
Cu      -0.00000000       5.41617559       5.41617559
Cu       1.79665185       3.61470646       5.42299206
Cu       1.79665185       5.42299206       3.61470646
Cu      -0.00000001       3.60439653       7.24695086
Cu      -0.00000001       5.40764900       9.05020493
Cu       1.80496870       3.61991038       9.03469014
Cu       1.79571353       5.42435672       7.23024394
Cu      -0.00000000       7.23066669       0.01162846
Cu      -0.00000001       9.10104415       1.77231318
Cu       1.79314906       7.24243327       1.81131960
Cu       1.81061820       9.04696385       0.00878929
Cu      -0.00000001       7.24695086       3.60439653
Cu      -0.00000001       9.05020493       5.40764900
Cu       1.79571353       7.23024394       5.42435672
Cu       1.80496870       9.03469014       3.61991038
Cu      -0.00000000       7.23842393       7.23842393
Cu      -0.00000000       9.06100425       9.06100425
Cu       1.79665346       7.23160764       9.03989373
Cu       1.79665346       9.03989373       7.23160764
Cu       3.62463411       0.00712117       0.00712117
Cu       3.62463484       1.81747933       1.81747933
Cu       5.41500002       0.00543971       1.81916131
Cu       5.41500002       1.81916131       0.00543971
Cu       3.61961691       0.00601573       3.62943439
Cu       3.59789964       1.81493468       5.42378707
Cu       5.41500002       0.00978639       5.43247050
Cu       5.41500002       1.81694957       3.62768556
Cu       3.59790001       0.00966692       7.23081416
Cu       3.61961632       1.81858539       9.02516712
Cu       5.41500002       0.00765207       9.02691605
Cu       5.41500002       1.81481571       7.22213137
Cu       3.61961691       3.62943439       0.00601573
Cu       3.59789964       5.42378707       1.81493468
Cu       5.41500002       3.62768556       1.81694957
Cu       5.41500002       5.43247050       0.00978639
Cu       3.60889575       3.62183700       3.62183700
Cu       3.60345496       5.42469000       5.42469000
Cu       5.41500000       3.62061392       5.42572589
Cu       5.41500000       5.42572589       3.62061392
Cu       3.60485412       3.62104117       7.22603335
Cu       3.60485455       5.42856762       9.03356018
Cu       5.41500001       3.62689872       9.02770268
Cu       5.41500000       5.42676576       7.22783529
Cu       3.59790001       7.23081416       0.00966692
Cu       3.61961632       9.02516712       1.81858539
Cu       5.41500002       7.22213137       1.81481571
Cu       5.41500002       9.02691605       0.00765207
Cu       3.60485412       7.22603335       3.62104117
Cu       3.60485455       9.03356018       5.42856762
Cu       5.41500000       7.22783529       5.42676576
Cu       5.41500001       9.02770268       3.62689872
Cu       3.60345564       7.22991063       7.22991063
Cu       3.60889719       9.03276327       9.03276327
Cu       5.41500000       7.22887509       9.03398762
Cu       5.41500000       9.03398762       7.22887509
Cu       7.20536582       0.00712115       0.00712115
Cu       7.20536509       1.81747935       1.81747935
Cu       8.93516063      -0.01590033       1.84050039
Cu       8.93516063       1.84050039      -0.01590033
Cu       7.21038302       0.00601574       3.62943445
Cu       7.23210034       1.81493467       5.42378706
Cu       9.03685056       0.01328131       5.41216786
Cu       9.01938268       1.81580824       3.60763489
Cu       7.23209998       0.00966693       7.23081417
Cu       7.21038362       1.81858538       9.02516706
Cu       9.01938181       0.00878929       9.04696383
Cu       9.03685094       1.81131960       7.24243328
Cu       7.21038302       3.62943445       0.00601574
Cu       7.23210034       5.42378706       1.81493467
Cu       9.01938268       3.60763489       1.81580824
Cu       9.03685056       5.41216786       0.01328131
Cu       7.22110424       3.62183699       3.62183699
Cu       7.22654504       5.42469000       5.42469000
Cu       9.03334816       3.61470646       5.42299206
Cu       9.03334816       5.42299206       3.61470646
Cu       7.22514587       3.62104117       7.22603336
Cu       7.22514545       5.42856761       9.03356018
Cu       9.02503133       3.61991042       9.03469010
Cu       9.03428647       5.42435671       7.23024395
Cu       7.23209998       7.23081417       0.00966693
Cu       7.21038362       9.02516706       1.81858538
Cu       9.03685094       7.24243328       1.81131960
Cu       9.01938181       9.04696383       0.00878929
Cu       7.22514587       7.22603336       3.62104117
Cu       7.22514545       9.03356018       5.42856761
Cu       9.03428647       7.23024395       5.42435671
Cu       9.02503133       9.03469010       3.61991042
Cu       7.22654435       7.22991063       7.22991063
Cu       7.22110280       9.03276328       9.03276328
Cu       9.03334655       7.23160764       9.03989373
Cu       9.03334655       9.03989373       7.23160764
107
Lattice="10.83 0.0 0.0 0.0 10.83 0.0 0.0 0.0 10.83" Properties=species:S:1:pos:R:3 energy=0.795083357422166 pbc="T T T"
Cu      -0.00000399       0.89662762       0.89662762
Cu       1.89554791      -0.07267609       1.78352005
Cu       1.89554791       1.78352005      -0.07267609
Cu      -0.00000016      -0.00325278       3.49606791
Cu      -0.00000006       1.75662405       5.36733246
Cu       1.79293696      -0.04344696       5.35505081
Cu       1.81108517       1.75998907       3.55123665
Cu      -0.00000006      -0.04479053       7.17416836
Cu      -0.00000012       1.71539325       9.04491008
Cu       1.81077923      -0.04734026       8.99058596
Cu       1.79311820       1.75437249       7.18567414
Cu      -0.00000016       3.49606791      -0.00325278
Cu      -0.00000006       5.36733246       1.75662405
Cu       1.81108517       3.55123665       1.75998907
Cu       1.79293696       5.35505081      -0.04344696
Cu      -0.00000004       3.53920157       3.53920157
Cu      -0.00000002       5.35963079       5.35963079
Cu       1.79698882       3.55800963       5.36650465
Cu       1.79698882       5.36650465       3.55800963
Cu      -0.00000014       3.54702511       7.19072871
Cu      -0.00000014       5.35085214       8.99339795
Cu       1.80483096       3.56294327       8.97818912
Cu       1.79547823       5.36744927       7.17350149
Cu      -0.00000006       7.17416836      -0.04479053
Cu      -0.00000012       9.04491008       1.71539325
Cu       1.79311820       7.18567414       1.75437249
Cu       1.81077923       8.99058596      -0.04734026
Cu      -0.00000014       7.19072871       3.54702511
Cu      -0.00000014       8.99339795       5.35085214
Cu       1.79547823       7.17350149       5.36744927
Cu       1.80483096       8.97818912       3.56294327
Cu      -0.00000002       7.18194581       7.18194581
Cu      -0.00000005       9.00655330       9.00655330
Cu       1.79613336       7.17492162       8.98316733
Cu       1.79613336       8.98316733       7.17492162
Cu       3.62538870      -0.04983717      -0.04983717
Cu       3.62472139       1.76078925       1.76078925
Cu       5.41500021      -0.05147113       1.76236702
Cu       5.41500021       1.76236702      -0.05147113
Cu       3.61957075      -0.05084753       3.57248994
Cu       3.59793429       1.75802336       5.36695037
Cu       5.41500021      -0.04732162       5.37532393
Cu       5.41500024       1.76004919       3.57080118
Cu       3.59783583      -0.04739423       7.17362600
Cu       3.62007187       1.76171367       8.96792066
Cu       5.41500025      -0.04949222       8.96957459
Cu       5.41500021       1.75777508       7.16490038
Cu       3.61957075       3.57248994      -0.05084753
Cu       3.59793429       5.36695037       1.75802336
Cu       5.41500024       3.57080118       1.76004919
Cu       5.41500021       5.37532393      -0.04732162
Cu       3.60938893       3.56535386       3.56535386
Cu       3.60346234       5.36798553       5.36798553
Cu       5.41500001       3.56376377       5.36902479
Cu       5.41500001       5.36902479       3.56376377
Cu       3.60479288       3.56414708       7.16921345
Cu       3.60458494       5.37161280       8.97658737
Cu       5.41500017       3.57006598       8.97067061
Cu       5.41500003       5.36988132       7.17093791
Cu       3.59783583       7.17362600      -0.04739423
Cu       3.62007187       8.96792066       1.76171367
Cu       5.41500021       7.16490038       1.75777508
Cu       5.41500025       8.96957459      -0.04949222
Cu       3.60479288       7.16921345       3.56414708
Cu       3.60458494       8.97658737       5.37161280
Cu       5.41500003       7.17093791       5.36988132
Cu       5.41500017       8.97067061       3.57006598
Cu       3.60312986       7.17301076       7.17301076
Cu       3.60874312       8.97579976       8.97579976
Cu       5.41500001       7.17173490       8.97683771
Cu       5.41500001       8.97683771       7.17173490
Cu       7.20461041      -0.04983742      -0.04983742
Cu       7.20527777       1.76078948       1.76078948
Cu       8.93445567      -0.07267425       1.78351838
Cu       8.93445567       1.78351838      -0.07267425
Cu       7.21042835      -0.05084729       3.57249075
Cu       7.23206555       1.75802322       5.36695022
Cu       9.03706314      -0.04344698       5.35505068
Cu       9.01891497       1.75998911       3.55123704
Cu       7.23216400      -0.04739408       7.17362615
Cu       7.20992719       1.76171343       8.96791983
Cu       9.01922092      -0.04734035       8.99058558
Cu       9.03688189       1.75437251       7.18567426
Cu       7.21042835       3.57249075      -0.05084729
Cu       7.23206555       5.36695022       1.75802322
Cu       9.01891497       3.55123704       1.75998911
Cu       9.03706314       5.35505068      -0.04344698
Cu       7.22061092       3.56535377       3.56535377
Cu       7.22653757       5.36798554       5.36798554
Cu       9.03301132       3.55800962       5.36650463
Cu       9.03301132       5.36650463       3.55800962
Cu       7.22520703       3.56414704       7.16921359
Cu       7.22541497       5.37161267       8.97658741
Cu       9.02516944       3.56294380       8.97818860
Cu       9.03452188       5.36744913       7.17350163
Cu       7.23216400       7.17362615      -0.04739408
Cu       7.20992719       8.96791983       1.76171343
Cu       9.03688189       7.18567426       1.75437251
Cu       9.01922092       8.99058558      -0.04734035
Cu       7.22520703       7.16921359       3.56414704
Cu       7.22541497       8.97658741       5.37161267
Cu       9.03452188       7.17350163       5.36744913
Cu       9.02516944       8.97818860       3.56294380
Cu       7.22687005       7.17301074       7.17301074
Cu       7.22125674       8.97579986       8.97579986
Cu       9.03386678       7.17492165       8.98316734
Cu       9.03386678       8.98316734       7.17492165
107
Lattice="10.83 0.0 0.0 0.0 10.83 0.0 0.0 0.0 10.83" Properties=species:S:1:pos:R:3 energy=0.782136373622242 pbc="T T T"
Cu       0.00000048       0.31766504       0.31766504
Cu       1.87074638      -0.05285141       1.78819568
Cu       1.87074638       1.78819568      -0.05285141
Cu       0.00000001      -0.02929578       3.52734504
Cu       0.00000002       1.75375043       5.36876966
Cu       1.79819786      -0.04512337       5.36004724