107
Lattice="10.83 0.0 0.0 0.0 10.83 0.0 0.0 0.0 10.83" Properties=species:S:1:pos:R:3 energy=0.7559060451461294 pbc="T T T"
Cu      -0.00000030       0.91224336       0.91224336
Cu       1.89483963      -0.01590046       1.84050052
Cu       1.89483963       1.84050052      -0.01590046
Cu      -0.00000001       0.05228503       3.55355656
Cu      -0.00000000       1.81297078       5.42393298
Cu       1.79314945       0.01328131       5.41216786
Cu       1.81061733       1.81580824       3.60763486
Cu      -0.00000000       0.01162846       7.23066669
Cu      -0.00000001       1.77231318       9.10104415
Cu       1.81061820       0.00878929       9.04696385
Cu       1.79314906       1.81131960       7.24243327
Cu      -0.00000001       3.55355656       0.05228503
Cu      -0.00000000       5.42393298       1.81297078
Cu       1.81061733       3.60763486       1.81580824
Cu       1.79314945       5.41216786       0.01328131
Cu      -0.00000000       3.59358846       3.59358846
Cu      -0.00000000       5.41617559       5.41617559
Cu       1.79665185       3.61470646       5.42299206
Cu       1.79665185       5.42299206       3.61470646
Cu      -0.00000001       3.60439653       7.24695086
Cu      -0.00000001       5.40764900       9.05020493
Cu       1.80496870       3.61991038       9.03469014
Cu       1.79571353       5.42435672       7.23024394
Cu      -0.00000000       7.23066669       0.01162846
Cu      -0.00000001       9.10104415       1.77231318
Cu       1.79314906       7.24243327       1.81131960
Cu       1.81061820       9.04696385       0.00878929
Cu      -0.00000001       7.24695086       3.60439653
Cu      -0.00000001       9.05020493       5.40764900
Cu       1.79571353       7.23024394       5.42435672
Cu       1.80496870       9.03469014       3.61991038
Cu      -0.00000000       7.23842393       7.23842393
Cu      -0.00000000       9.06100425       9.06100425
Cu       1.79665346       7.23160764       9.03989373
Cu       1.79665346       9.03989373       7.23160764
Cu       3.62463411       0.00712117       0.00712117
Cu       3.62463484       1.81747933       1.81747933
Cu       5.41500002       0.00543971       1.81916131
Cu       5.41500002       1.81916131       0.00543971
Cu       3.61961691       0.00601573       3.62943439
Cu       3.59789964       1.81493468       5.42378707
Cu       5.41500002       0.00978639       5.43247050
Cu       5.41500002       1.81694957       3.62768556
Cu       3.59790001       0.00966692       7.23081416
Cu       3.61961632       1.81858539       9.02516712
Cu       5.41500002       0.00765207       9.02691605
Cu       5.41500002       1.81481571       7.22213137
Cu       3.61961691       3.62943439       0.00601573
Cu       3.59789964       5.42378707       1.81493468
Cu       5.41500002       3.62768556       1.81694957
Cu       5.41500002       5.43247050       0.00978639
Cu       3.60889575       3.62183700       3.62183700
Cu       3.60345496       5.42469000       5.42469000
Cu       5.41500000       3.62061392       5.42572589
Cu       5.41500000       5.42572589       3.62061392
Cu       3.60485412       3.62104117       7.22603335
Cu       3.60485455       5.42856762       9.03356018
Cu       5.41500001       3.62689872       9.02770268
Cu       5.41500000       5.42676576       7.22783529
Cu       3.59790001       7.23081416       0.00966692
Cu       3.61961632       9.02516712       1.81858539
Cu       5.41500002       7.22213137       1.81481571
Cu       5.41500002       9.02691605       0.00765207
Cu       3.60485412       7.22603335       3.62104117
Cu       3.60485455       9.03356018       5.42856762
Cu       5.41500000       7.22783529       5.42676576
Cu       5.41500001       9.02770268       3.62689872
Cu       3.60345564       7.22991063       7.22991063
Cu       3.60889719       9.03276327       9.03276327
Cu       5.41500000       7.22887509       9.03398762
Cu       5.41500000       9.03398762       7.22887509
Cu       7.20536582       0.00712115       0.00712115
Cu       7.20536509       1.81747935       1.81747935
Cu       8.93516063      -0.01590033       1.84050039
Cu       8.93516063       1.84050039      -0.01590033
Cu       7.21038302       0.00601574       3.62943445
Cu       7.23210034       1.81493467       5.42378706
Cu       9.03685056       0.01328131       5.41216786
Cu       9.01938268       1.81580824       3.60763489
Cu       7.23209998       0.00966693       7.23081417
Cu       7.21038362       1.81858538       9.02516706
Cu       9.01938181       0.00878929       9.04696383
Cu       9.03685094       1.81131960       7.24243328
Cu       7.21038302       3.62943445       0.00601574
Cu       7.23210034       5.42378706       1.81493467
Cu       9.01938268       3.60763489       1.81580824
Cu       9.03685056       5.41216786       0.01328131
Cu       7.22110424       3.62183699       3.62183699
Cu       7.22654504       5.42469000       5.42469000
Cu       9.03334816       3.61470646       5.42299206
Cu       9.03334816       5.42299206       3.61470646
Cu       7.22514587       3.62104117       7.22603336
Cu       7.22514545       5.42856761       9.03356018
Cu       9.02503133       3.61991042       9.03469010
Cu       9.03428647       5.42435671       7.23024395
Cu       7.23209998       7.23081417       0.00966693
Cu       7.21038362       9.02516706       1.81858538
Cu       9.03685094       7.24243328       1.81131960
Cu       9.01938181       9.04696383       0.00878929
Cu       7.22514587       7.22603336       3.62104117
Cu       7.22514545       9.03356018       5.42856761
Cu       9.03428647       7.23024395       5.42435671
Cu       9.02503133       9.03469010       3.61991042
Cu       7.22654435       7.22991063       7.22991063
Cu       7.22110280       9.03276328       9.03276328
Cu       9.03334655       7.23160764       9.03989373
Cu       9.03334655       9.03989373       7.23160764
