107
Lattice="10.83 0.0 0.0 0.0 10.83 0.0 0.0 0.0 10.83" Properties=species:S:1:pos:R:3 energy=0.586335242638059 pbc="T T T"
Cu       0.00000000       1.80500000       1.80500000
Cu       1.80500000       0.00000000       1.80500000
Cu       1.80500000       1.80500000       0.00000000
Cu       0.00000000       0.00000000       3.61000000
Cu       0.00000000       1.80500000       5.41500000
Cu       1.80500000       0.00000000       5.41500000
Cu       1.80500000       1.80500000       3.61000000
Cu       0.00000000       0.00000000       7.22000000
Cu       0.00000000       1.80500000       9.02500000
Cu       1.80500000       0.00000000       9.02500000
Cu       1.80500000       1.80500000       7.22000000
Cu       0.00000000       3.61000000       0.00000000
Cu       0.00000000       5.41500000       1.80500000
Cu       1.80500000       3.61000000       1.80500000
Cu       1.80500000       5.41500000       0.00000000
Cu       0.00000000       3.61000000       3.61000000
Cu       0.00000000       5.41500000       5.41500000
Cu       1.80500000       3.61000000       5.41500000
Cu       1.80500000       5.41500000       3.61000000
Cu       0.00000000       3.61000000       7.22000000
Cu       0.00000000       5.41500000       9.02500000
Cu       1.80500000       3.61000000       9.02500000
Cu       1.80500000       5.41500000       7.22000000
Cu       0.00000000       7.22000000       0.00000000
Cu       0.00000000       9.02500000       1.80500000
Cu       1.80500000       7.22000000       1.80500000
Cu       1.80500000       9.02500000       0.00000000
Cu       0.00000000       7.22000000       3.61000000
Cu       0.00000000       9.02500000       5.41500000
Cu       1.80500000       7.22000000       5.41500000
Cu       1.80500000       9.02500000       3.61000000
Cu       0.00000000       7.22000000       7.22000000
Cu       0.00000000       9.02500000       9.02500000
Cu       1.80500000       7.22000000       9.02500000
Cu       1.80500000       9.02500000       7.22000000
Cu       3.61000000       0.00000000       0.00000000
Cu       3.61000000       1.80500000       1.80500000
Cu       5.41500000       0.00000000       1.80500000
Cu       5.41500000       1.80500000       0.00000000
Cu       3.61000000       0.00000000       3.61000000
Cu       3.61000000       1.80500000       5.41500000
Cu       5.41500000       0.00000000       5.41500000
Cu       5.41500000       1.80500000       3.61000000
Cu       3.61000000       0.00000000       7.22000000
Cu       3.61000000       1.80500000       9.02500000
Cu       5.41500000       0.00000000       9.02500000
Cu       5.41500000       1.80500000       7.22000000
Cu       3.61000000       3.61000000       0.00000000
Cu       3.61000000       5.41500000       1.80500000
Cu       5.41500000       3.61000000       1.80500000
Cu       5.41500000       5.41500000       0.00000000
Cu       3.61000000       3.61000000       3.61000000
Cu       3.61000000       5.41500000       5.41500000
Cu       5.41500000       3.61000000       5.41500000
Cu       5.41500000       5.41500000       3.61000000
Cu       3.61000000       3.61000000       7.22000000
Cu       3.61000000       5.41500000       9.02500000
Cu       5.41500000       3.61000000       9.02500000
Cu       5.41500000       5.41500000       7.22000000
Cu       3.61000000       7.22000000       0.00000000
Cu       3.61000000       9.02500000       1.80500000
Cu       5.41500000       7.22000000       1.80500000
Cu       5.41500000       9.02500000       0.00000000
Cu       3.61000000       7.22000000       3.61000000
Cu       3.61000000       9.02500000       5.41500000
Cu       5.41500000       7.22000000       5.41500000
Cu       5.41500000       9.02500000       3.61000000
Cu       3.61000000       7.22000000       7.22000000
Cu       3.61000000       9.02500000       9.02500000
Cu       5.41500000       7.22000000       9.02500000
Cu       5.41500000       9.02500000       7.22000000
Cu       7.22000000       0.00000000       0.00000000
Cu       7.22000000       1.80500000       1.80500000
Cu       9.02500000       0.00000000       1.80500000
Cu       9.02500000       1.80500000       0.00000000
Cu       7.22000000       0.00000000       3.61000000
Cu       7.22000000       1.80500000       5.41500000
Cu       9.02500000       0.00000000       5.41500000
Cu       9.02500000       1.80500000       3.61000000
Cu       7.22000000       0.00000000       7.22000000
Cu       7.22000000       1.80500000       9.02500000
Cu       9.02500000       0.00000000       9.02500000
Cu       9.02500000       1.80500000       7.22000000
Cu       7.22000000       3.61000000       0.00000000
Cu       7.22000000       5.41500000       1.80500000
Cu       9.02500000       3.61000000       1.80500000
Cu       9.02500000       5.41500000       0.00000000
Cu       7.22000000       3.61000000       3.61000000
Cu       7.22000000       5.41500000       5.41500000
Cu       9.02500000       3.61000000       5.41500000
Cu       9.02500000       5.41500000       3.61000000
Cu       7.22000000       3.61000000       7.22000000
Cu       7.22000000       5.41500000       9.02500000
Cu       9.02500000       3.61000000       9.02500000
Cu       9.02500000       5.41500000       7.22000000
Cu       7.22000000       7.22000000       0.00000000
Cu       7.22000000       9.02500000       1.80500000
Cu       9.02500000       7.22000000       1.80500000
Cu       9.02500000       9.02500000       0.00000000
Cu       7.22000000       7.22000000       3.61000000
Cu       7.22000000       9.02500000       5.41500000
Cu       9.02500000       7.22000000       5.41500000
Cu       9.02500000       9.02500000       3.61000000
Cu       7.22000000       7.22000000       7.22000000
Cu       7.22000000       9.02500000       9.02500000
Cu       9.02500000       7.22000000       9.02500000
Cu       9.02500000       9.02500000       7.22000000
107
Lattice="10.83 0.0 0.0 0.0 10.83 0.0 0.0 0.0 10.83" Properties=species:S:1:pos:R:3 energy=0.877351770257473 pbc="T T T"
Cu       0.00000000       1.54714286       1.54714286
Cu       1.80500000       0.00000000       1.80500000
Cu       1.80500000       1.80500000       0.00000000
Cu       0.00000000       0.00000000       3.61000000
Cu       0.00000000       1.80500000       5.41500000
Cu       1.80500000       0.00000000       5.41500000
Cu       1.80500000       1.80500000       3.61000000
Cu       0.00000000       0.00000000       7.22000000
Cu       0.00000000       1.80500000       9.02500000
Cu       1.80500000       0.00000000       9.02500000
Cu       1.80500000       1.80500000       7.22000000
Cu       0.00000000       3.61000000       0.00000000
Cu       0.00000000       5.41500000       1.80500000
Cu       1.80500000       3.61000000       1.80500000
Cu       1.80500000       5.41500000       0.00000000
Cu       0.00000000       3.61000000       3.61000000
Cu       0.00000000       5.41500000       5.41500000
Cu       1.80500000       3.61000000       5.41500000
Cu       1.80500000       5.41500000       3.61000000
Cu       0.00000000       3.61000000       7.22000000
Cu       0.00000000       5.41500000       9.02500000
Cu       1.80500000       3.61000000       9.02500000
Cu       1.80500000       5.41500000       7.22000000
Cu       0.00000000       7.22000000       0.00000000
Cu       0.00000000       9.02500000       1.80500000
Cu       1.80500000       7.22000000       1.80500000
Cu       1.80500000       9.02500000       0.00000000
Cu       0.00000000       7.22000000       3.61000000
Cu       0.00000000       9.02500000       5.41500000
Cu       1.80500000       7.22000000       5.41500000
Cu       1.80500000       9.02500000       3.61000000
Cu       0.00000000       7.22000000       7.22000000
Cu       0.00000000       9.02500000       9.02500000
Cu       1.80500000       7.22000000       9.02500000
Cu       1.80500000       9.02500000       7.22000000
Cu       3.61000000       0.00000000       0.00000000
Cu       3.61000000       1.80500000       1.80500000
Cu       5.41500000       0.00000000       1.80500000
Cu       5.41500000       1.80500000       0.00000000
Cu       3.61000000       0.00000000       3.61000000
Cu       3.61000000       1.80500000       5.41500000
Cu       5.41500000       0.00000000       5.41500000
Cu       5.41500000       1.80500000       3.61000000
Cu       3.61000000       0.00000000       7.22000000
Cu       3.61000000       1.80500000       9.02500000
Cu       5.41500000       0.00000000       9.02500000
Cu       5.41500000       1.80500000       7.22000000
Cu       3.61000000       3.61000000       0.00000000
Cu       3.61000000       5.41500000       1.80500000
Cu       5.41500000       3.61000000       1.80500000
Cu       5.41500000       5.41500000       0.00000000
Cu       3.61000000       3.61000000       3.61000000
Cu       3.61000000       5.41500000       5.41500000
Cu       5.41500000       3.61000000       5.41500000
Cu       5.41500000       5.41500000       3.61000000
Cu       3.61000000       3.61000000       7.22000000
Cu       3.61000000       5.41500000       9.02500000
Cu       5.41500000       3.61000000       9.02500000
Cu       5.41500000       5.41500000       7.22000000
Cu       3.61000000       7.22000000       0.00000000
Cu       3.61000000       9.02500000       1.80500000
Cu       5.41500000       7.22000000       1.80500000
Cu       5.41500000       9.02500000       0.00000000
Cu       3.61000000       7.22000000       3.61000000
Cu       3.61000000       9.02500000       5.41500000
Cu       5.41500000       7.22000000       5.41500000
Cu       5.41500000       9.02500000       3.61000000
Cu       3.61000000       7.22000000       7.22000000
Cu       3.61000000       9.02500000       9.02500000
Cu       5.41500000       7.22000000       9.02500000
Cu       5.41500000       9.02500000       7.22000000
Cu       7.22000000       0.00000000       0.00000000
Cu       7.22000000       1.80500000       1.80500000
Cu       9.02500000       0.00000000       1.80500000
Cu       9.02500000       1.80500000       0.00000000
Cu       7.22000000       0.00000000       3.61000000
Cu       7.22000000       1.80500000       5.41500000
Cu       9.02500000       0.00000000       5.41500000
Cu       9.02500000       1.80500000       3.61000000
Cu       7.22000000       0.00000000       7.22000000
Cu       7.22000000       1.80500000       9.02500000
Cu       9.02500000       0.00000000       9.02500000
Cu       9.02500000       1.80500000       7.22000000
Cu       7.22000000       3.61000000       0.00000000
Cu       7.22000000       5.41500000       1.80500000
Cu       9.02500000       3.61000000       1.80500000
Cu       9.02500000       5.41500000       0.00000000
Cu       7.22000000       3.61000000       3.61000000
Cu       7.22000000       5.41500000       5.41500000
Cu       9.02500000       3.61000000       5.41500000
Cu       9.02500000       5.41500000       3.61000000
Cu       7.22000000       3.61000000       7.22000000
Cu       7.22000000       5.41500000       9.02500000
Cu       9.02500000       3.61000000       9.02500000
Cu       9.02500000       5.41500000       7.22000000
Cu       7.22000000       7.22000000       0.00000000
Cu       7.22000000       9.02500000       1.80500000
Cu       9.02500000       7.22000000       1.80500000
Cu       9.02500000       9.02500000       0.00000000
Cu       7.22000000       7.22000000       3.61000000
Cu       7.22000000       9.02500000       5.41500000
Cu       9.02500000       7.22000000       5.41500000
Cu       9.02500000       9.02500000       3.61000000
Cu       7.22000000       7.22000000       7.22000000
Cu       7.22000000       9.02500000       9.02500000
Cu       9.02500000       7.22000000       9.02500000
Cu       9.02500000       9.02500000       7.22000000
107
Lattice="10.83 0.0 0.0 0.0 10.83 0.0 0.0 0.0 10.83" Properties=species:S:1:pos:R:3 energy=1.37828027552204 pbc="T T T"
Cu       0.00000000       1.28928571       1.28928571
Cu       1.80500000       0.00000000       1.80500000
Cu       1.80500000       1.80500000       0.00000000
Cu       0.00000000       0.00000000       3.61000000
Cu       0.00000000       1.80500000       5.41500000
Cu       1.80500000       0.00000000       5.41500000
Cu       1.80500000       1.80500000       3.61000000
Cu       0.00000000       0.00000000       7.22000000
Cu       0.00000000       1.80500000       9.02500000
Cu       1.80500000       0.00000000       9.02500000
Cu       1.80500000       1.80500000       7.22000000
Cu       0.00000000       3.61000000       0.00000000
Cu       0.00000000       5.41500000       1.80500000
Cu       1.80500000       3.61000000       1.80500000
Cu       1.80500000       5.41500000       0.00000000
Cu       0.00000000       3.61000000       3.61000000
Cu       0.00000000       5.41500000       5.41500000
Cu       1.80500000       3.61000000       5.41500000
Cu       1.80500000       5.41500000       3.61000000
Cu       0.00000000       3.61000000       7.22000000
Cu       0.00000000       5.41500000       9.02500000
Cu       1.80500000       3.61000000       9.02500000
Cu       1.80500000       5.41500000       7.22000000
Cu       0.00000000       7.22000000       0.00000000
Cu       0.00000000       9.02500000       1.80500000
Cu       1.80500000       7.22000000       1.80500000
Cu       1.80500000       9.02500000       0.00000000
Cu       0.00000000       7.22000000       3.61000000
Cu       0.00000000       9.02500000       5.41500000
Cu       1.80500000       7.22000000       5.41500000
Cu       1.80500000       9.02500000       3.61000000
Cu       0.00000000       7.22000000       7.22000000
Cu       0.00000000       9.02500000       9.02500000
Cu       1.80500000       7.22000000       9.02500000
Cu       1.80500000       9.02500000       7.22000000
Cu       3.61000000       0.00000000       0.00000000
Cu       3.61000000       1.80500000       1.80500000
Cu       5.41500000       0.00000000       1.80500000
Cu       5.41500000       1.80500000       0.00000000
Cu       3.61000000       0.00000000       3.61000000
Cu       3.61000000       1.80500000       5.41500000
Cu       5.41500000       0.00000000       5.41500000
Cu       5.41500000       1.80500000       3.61000000
Cu       3.61000000       0.00000000       7.22000000
Cu       3.61000000       1.80500000       9.02500000
Cu       5.41500000       0.00000000       9.02500000
Cu       5.41500000       1.80500000       7.22000000
Cu       3.61000000       3.61000000       0.00000000
Cu       3.61000000       5.41500000       1.80500000
Cu       5.41500000       3.61000000       1.80500000
Cu       5.41500000       5.41500000       0.00000000
Cu       3.61000000       3.61000000       3.61000000
Cu       3.61000000       5.41500000       5.41500000
Cu       5.41500000       3.61000000       5.41500000
Cu       5.41500000       5.41500000       3.61000000
Cu       3.61000000       3.61000000       7.22000000
Cu       3.61000000       5.41500000       9.02500000
Cu       5.41500000       3.61000000       9.02500000
Cu       5.41500000       5.41500000       7.22000000
Cu       3.61000000       7.22000000       0.00000000
Cu       3.61000000       9.02500000       1.80500000
Cu       5.41500000       7.22000000       1.80500000
Cu       5.41500000       9.02500000       0.00000000
Cu       3.61000000       7.22000000       3.61000000
Cu       3.61000000       9.02500000       5.41500000
Cu       5.41500000       7.22000000       5.41500000
Cu       5.41500000       9.02500000       3.61000000
Cu       3.61000000       7.22000000       7.22000000
Cu       3.61000000       9.02500000       9.02500000
Cu       5.41500000       7.22000000       9.02500000
Cu       5.41500000       9.02500000       7.22000000
Cu       7.22000000       0.00000000       0.00000000
Cu       7.22000000       1.80500000       1.80500000
Cu       9.02500000       0.00000000       1.80500000
Cu       9.02500000       1.80500000       0.00000000
Cu       7.22000000       0.00000000       3.61000000
Cu       7.22000000       1.80500000       5.41500000
Cu       9.02500000       0.00000000       5.41500000
Cu       9.02500000       1.80500000       3.61000000
Cu       7.22000000       0.00000000       7.22000000
Cu       7.22000000       1.80500000       9.02500000
Cu       9.02500000       0.00000000       9.02500000
Cu       9.02500000       1.80500000       7.22000000
Cu       7.22000000       3.61000000       0.00000000
Cu       7.22000000       5.41500000       1.80500000
Cu       9.02500000       3.61000000       1.80500000
Cu       9.02500000       5.41500000       0.00000000
Cu       7.22000000       3.61000000       3.61000000
Cu       7.22000000       5.41500000       5.41500000
Cu       9.02500000       3.61000000       5.41500000
Cu       9.02500000       5.41500000       3.61000000
Cu       7.22000000       3.61000000       7.22000000
Cu       7.22000000       5.41500000       9.02500000
Cu       9.02500000       3.61000000       9.02500000
Cu       9.02500000       5.41500000       7.22000000
Cu       7.22000000       7.22000000       0.00000000
Cu       7.22000000       9.02500000       1.80500000
Cu       9.02500000       7.22000000       1.80500000
Cu       9.02500000       9.02500000       0.00000000
Cu       7.22000000       7.22000000       3.61000000
Cu       7.22000000       9.02500000       5.41500000
Cu       9.02500000       7.22000000       5.41500000
Cu       9.02500000       9.02500000       3.61000000
Cu       7.22000000       7.22000000       7.22000000
Cu       7.22000000       9.02500000       9.02500000
Cu       9.02500000       7.22000000       9.02500000
Cu       9.02500000       9.02500000       7.22000000
107
Lattice="10.83 0.0 0.0 0.0 10.83 0.0 0.0 0.0 10.83" Properties=species:S:1:pos:R:3 energy=1.70287482557591 pbc="T T T"
Cu       0.00000000       1.03142857       1.03142857
Cu       1.80500000       0.00000000       1.80500000
Cu       1.80500000       1.80500000       0.00000000
Cu       0.00000000       0.00000000       3.61000000
Cu       0.00000000       1.80500000       5.41500000
Cu       1.80500000       0.00000000       5.41500000
Cu       1.80500000       1.80500000       3.61000000
Cu       0.00000000       0.00000000       7.22000000
Cu       0.00000000       1.80500000       9.02500000
Cu       1.80500000       0.00000000       9.02500000
Cu       1.80500000       1.80500000       7.22000000
Cu       0.00000000       3.61000000       0.00000000
Cu       0.00000000       5.41500000       1.80500000
Cu       1.80500000       3.61000000       1.80500000
Cu       1.80500000       5.41500000       0.00000000
Cu       0.00000000       3.61000000       3.61000000
Cu       0.00000000       5.41500000       5.41500000
Cu       1.80500000       3.61000000       5.41500000
Cu       1.80500000       5.41500000       3.61000000
Cu       0.00000000       3.61000000       7.22000000
Cu       0.00000000       5.41500000       9.02500000
Cu       1.80500000       3.61000000       9.02500000
Cu       1.80500000       5.41500000       7.22000000
Cu       0.00000000       7.22000000       0.00000000
Cu       0.00000000       9.02500000       1.80500000
Cu       1.80500000       7.22000000       1.80500000
Cu       1.80500000       9.02500000       0.00000000
Cu       0.00000000       7.22000000       3.61000000
Cu       0.00000000       9.02500000       5.41500000
Cu       1.80500000       7.22000000       5.41500000
Cu       1.80500000       9.02500000       3.61000000
Cu       0.00000000       7.22000000       7.22000000
Cu       0.00000000       9.02500000       9.02500000
Cu       1.80500000       7.22000000       9.02500000
Cu       1.80500000       9.02500000       7.22000000
Cu       3.61000000       0.00000000       0.00000000
Cu       3.61000000       1.80500000       1.80500000
Cu       5.41500000       0.00000000       1.80500000
Cu       5.41500000       1.80500000       0.00000000
Cu       3.61000000       0.00000000       3.61000000
Cu       3.61000000       1.80500000       5.41500000
Cu       5.41500000       0.00000000       5.41500000
Cu       5.41500000       1.80500000       3.61000000
Cu       3.61000000       0.00000000       7.22000000
Cu       3.61000000       1.80500000       9.02500000
Cu       5.41500000       0.00000000       9.02500000
Cu       5.41500000       1.80500000       7.22000000
Cu       3.61000000       3.61000000       0.00000000
Cu       3.61000000       5.41500000       1.80500000
Cu       5.41500000       3.61000000       1.80500000
Cu       5.41500000       5.41500000       0.00000000
Cu       3.61000000       3.61000000       3.61000000
Cu       3.61000000       5.41500000       5.41500000
Cu       5.41500000       3.61000000       5.41500000
Cu       5.41500000       5.41500000       3.61000000
Cu       3.61000000       3.61000000       7.22000000
Cu       3.61000000       5.41500000       9.02500000
Cu       5.41500000       3.61000000       9.02500000
Cu       5.41500000       5.41500000       7.22000000
Cu       3.61000000       7.22000000       0.00000000
Cu       3.61000000       9.02500000       1.80500000
Cu       5.41500000       7.22000000       1.80500000
Cu       5.41500000       9.02500000       0.00000000
Cu       3.61000000       7.22000000       3.61000000
Cu       3.61000000       9.02500000       5.41500000
Cu       5.41500000       7.22000000       5.41500000
Cu       5.41500000       9.02500000       3.61000000
Cu       3.61000000       7.22000000       7.22000000
Cu       3.61000000       9.02500000       9.02500000
Cu       5.41500000       7.22000000       9.02500000
Cu       5.41500000       9.02500000       7.22000000
Cu       7.22000000       0.00000000       0.00000000
Cu       7.22000000       1.80500000       1.80500000
Cu       9.02500000       0.00000000       1.80500000
Cu       9.02500000       1.80500000       0.00000000
Cu       7.22000000       0.00000000       3.61000000
Cu       7.22000000       1.80500000       5.41500000
Cu       9.02500000       0.00000000       5.41500000
Cu       9.02500000       1.80500000       3.61000000
Cu       7.22000000       0.00000000       7.22000000
Cu       7.22000000       1.80500000       9.02500000
Cu       9.02500000       0.00000000       9.02500000
Cu       9.02500000       1.80500000       7.22000000
Cu       7.22000000       3.61000000       0.00000000
Cu       7.22000000       5.41500000       1.80500000
Cu       9.02500000       3.61000000       1.80500000
Cu       9.02500000       5.41500000       0.00000000
Cu       7.22000000       3.61000000       3.61000000
Cu       7.22000000       5.41500000       5.41500000
Cu       9.02500000       3.61000000       5.41500000
Cu       9.02500000       5.41500000       3.61000000
Cu       7.22000000       3.61000000       7.22000000
Cu       7.22000000       5.41500000       9.02500000
Cu       9.02500000       3.61000000       9.02500000
Cu       9.02500000       5.41500000       7.22000000
Cu       7.22000000       7.22000000       0.00000000
Cu       7.22000000       9.02500000       1.80500000
Cu       9.02500000       7.22000000       1.80500000
Cu       9.02500000       9.02500000       0.00000000
Cu       7.22000000       7.22000000       3.61000000
Cu       7.22000000       9.02500000       5.41500000
Cu       9.02500000       7.22000000       5.41500000
Cu       9.02500000       9.02500000       3.61000000
Cu       7.22000000       7.22000000       7.22000000
Cu       7.22000000       9.02500000       9.02500000
Cu       9.02500000       7.22000000       9.02500000
Cu       9.02500000       9.02500000       7.22000000
107
Lattice="10.83 0.0 0.0 0.0 10.83 0.0 0.0 0.0 10.83" Properties=species:S:1:pos:R:3 energy=1.70287482557591 pbc="T T T"
Cu       0.00000000       0.77357143       0.77357143
Cu       1.80500000       0.00000000       1.80500000
Cu       1.80500000       1.80500000       0.00000000
Cu       0.00000000       0.00000000       3.61000000
Cu       0.00000000       1.80500000       5.41500000
Cu       1.80500000       0.00000000       5.41500000
Cu       1.80500000       1.80500000       3.61000000
Cu       0.00000000       0.00000000       7.22000000
Cu       0.00000000       1.80500000       9.02500000
Cu       1.80500000       0.00000000       9.02500000
Cu       1.80500000       1.80500000       7.22000000
Cu       0.00000000       3.61000000       0.00000000
Cu       0.00000000       5.41500000       1.80500000
Cu       1.80500000       3.61000000       1.80500000
Cu       1.80500000       5.41500000       0.00000000
Cu       0.00000000       3.61000000       3.61000000
Cu       0.00000000       5.41500000       5.41500000
Cu       1.80500000       3.61000000       5.41500000
Cu       1.80500000       5.41500000       3.61000000
Cu       0.00000000       3.61000000       7.22000000
Cu       0.00000000       5.41500000       9.02500000
Cu       1.80500000       3.61000000       9.02500000
Cu       1.80500000       5.41500000       7.22000000
Cu       0.00000000       7.22000000       0.00000000
Cu       0.00000000       9.02500000       1.80500000
Cu       1.80500000       7.22000000       1.80500000
Cu       1.80500000       9.02500000       0.00000000
Cu       0.00000000       7.22000000       3.61000000
Cu       0.00000000       9.02500000       5.41500000
Cu       1.80500000       7.22000000       5.41500000
Cu       1.80500000       9.02500000       3.61000000
Cu       0.00000000       7.22000000       7.22000000
Cu       0.00000000       9.02500000       9.02500000
Cu       1.80500000       7.22000000       9.02500000
Cu       1.80500000       9.02500000       7.22000000
Cu       3.61000000       0.00000000       0.00000000
Cu       3.61000000       1.80500000       1.80500000
Cu       5.41500000       0.00000000       1.80500000
Cu       5.41500000       1.80500000       0.00000000
Cu       3.61000000       0.00000000       3.61000000
Cu       3.61000000       1.80500000       5.41500000
Cu       5.41500000       0.00000000       5.41500000
Cu       5.41500000       1.80500000       3.61000000
Cu       3.61000000       0.00000000       7.22000000
Cu       3.61000000       1.80500000       9.02500000
Cu       5.41500000       0.00000000       9.02500000
Cu       5.41500000       1.80500000       7.22000000
Cu       3.61000000       3.61000000       0.00000000
Cu       3.61000000       5.41500000       1.80500000
Cu       5.41500000       3.61000000       1.80500000
Cu       5.41500000       5.41500000       0.00000000
Cu       3.61000000       3.61000000       3.61000000
Cu       3.61000000       5.41500000       5.41500000
Cu       5.41500000       3.61000000       5.41500000
Cu       5.41500000       5.41500000       3.61000000
Cu       3.61000000       3.61000000       7.22000000
Cu       3.61000000       5.41500000       9.02500000
Cu       5.41500000       3.61000000       9.02500000
Cu       5.41500000       5.41500000       7.22000000
Cu       3.61000000       7.22000000       0.00000000
Cu       3.61000000       9.02500000       1.80500000
Cu       5.41500000       7.22000000       1.80500000
Cu       5.41500000       9.02500000       0.00000000
Cu       3.61000000       7.22000000       3.61000000
Cu       3.61000000       9.02500000       5.41500000
Cu       5.41500000       7.22000000       5.41500000
Cu       5.41500000       9.02500000       3.61000000
Cu       3.61000000       7.22000000       7.22000000
Cu       3.61000000       9.02500000       9.02500000
Cu       5.41500000       7.22000000       9.02500000
Cu       5.41500000       9.02500000       7.22000000
Cu       7.22000000       0.00000000       0.00000000
Cu       7.22000000       1.80500000       1.80500000
Cu       9.02500000       0.00000000       1.80500000
Cu       9.02500000       1.80500000       0.00000000
Cu       7.22000000       0.00000000       3.61000000
Cu       7.22000000       1.80500000       5.41500000
Cu       9.02500000       0.00000000       5.41500000
Cu       9.02500000       1.80500000       3.61000000
Cu       7.22000000       0.00000000       7.22000000
Cu       7.22000000       1.80500000       9.02500000
Cu       9.02500000       0.00000000       9.02500000
Cu       9.02500000       1.80500000       7.22000000
Cu       7.22000000       3.61000000       0.00000000
Cu       7.22000000       5.41500000       1.80500000
Cu       9.02500000       3.61000000       1.80500000
Cu       9.02500000       5.41500000       0.00000000
Cu       7.22000000       3.61000000       3.61000000
Cu       7.22000000       5.41500000       5.41500000
Cu       9.02500000       3.61000000       5.41500000
Cu       9.02500000       5.41500000       3.61000000
Cu       7.22000000       3.61000000       7.22000000
Cu       7.22000000       5.41500000       9.02500000
Cu       9.02500000       3.61000000       9.02500000
Cu       9.02500000       5.41500000       7.22000000
Cu       7.22000000       7.22000000       0.00000000
Cu       7.22000000       9.02500000       1.80500000
Cu       9.02500000       7.22000000       1.80500000
Cu       9.02500000       9.02500000       0.00000000
Cu       7.22000000       7.22000000       3.61000000
Cu       7.22000000       9.02500000       5.41500000
Cu       9.02500000       7.22000000       5.41500000
Cu       9.02500000       9.02500000       3.61000000
Cu       7.22000000       7.22000000       7.22000000
Cu       7.22000000       9.02500000       9.02500000
Cu       9.02500000       7.22000000       9.02500000
Cu       9.02500000       9.02500000       7.22000000
107
Lattice="10.83 0.0 0.0 0.0 10.83 0.0 0.0 0.0 10.83" Properties=species:S:1:pos:R:3 energy=1.37828027552204 pbc="T T T"
Cu       0.00000000       0.51571429       0.51571429
Cu       1.80500000       0.00000000       1.80500000
Cu       1.80500000       1.80500000       0.00000000
Cu       0.00000000       0.00000000       3.61000000
Cu       0.00000000       1.80500000       5.41500000
Cu       1.80500000       0.00000000       5.41500000