
.Version 9.6.2 of ABINIT 
.(MPI version, prepared for a x86_64_linux_intel19.1 computer) 

.Copyright (C) 1998-2021 ABINIT group . 
 ABINIT comes with ABSOLUTELY NO WARRANTY.
 It is free software, and you are welcome to redistribute it
 under certain conditions (GNU General Public License,
 see ~abinit/COPYING or http://www.gnu.org/copyleft/gpl.txt).

 ABINIT is a project of the Universite Catholique de Louvain,
 Corning Inc. and other collaborators, see ~abinit/doc/developers/contributors.txt .
 Please read https://docs.abinit.org/theory/acknowledgments for suggested
 acknowledgments of the ABINIT effort.
 For more information, see https://www.abinit.org .

.Starting date : Mon 16 Jan 2023.
- ( at 09h34 )
  
- input  file    -> abinit.in
- output file    -> abinit.abo
- root for input  files -> abiniti
- root for output files -> abinito
 
- inpspheads : Reading pseudopotential header in XML form from 
-   /ccc/scratch/cont002/dam/dewyntem/mlacs/Al/BETA/AlB_300K/Al_LDA.xml
- inpspheads : Reading pseudopotential header in XML form from 
-   /ccc/scratch/cont002/dam/dewyntem/mlacs/Al/BETA/AlB_300K/Zr_LDA.xml
 
 Symmetries : space group P1 (#  1); Bravais aP (primitive triclinic)
================================================================================
 Values of the parameters that define the memory need of the present run
     intxc =       0    ionmov =       0      iscf =      17    lmnmax =      18
     lnmax =       6     mgfft =     125  mpssoang =       3    mqgrid =    8849
     natom =     128  nloc_mem =       2    nspden =       1   nspinor =       1
    nsppol =       1      nsym =       1    n1xccc =       1    ntypat =       2
    occopt =       3   xclevel =       1
-    mband =         960        mffmem =           1         mkmem =           1
       mpw =        4039          nfft =     1953125          nkpt =           4
Pmy_natom=         2
 PAW method is used; the additional fine FFT grid is defined by:
   mgfftf=       180    nfftf =   5832000
================================================================================
P This job should need less than                    1295.003 Mbytes of memory.
  Rough estimation (10% accuracy) of disk space for files :
_ WF disk file :    236.662 Mbytes ; DEN or POT disk file :     44.497 Mbytes.
================================================================================
 
--------------------------------------------------------------------------------
------------- Echo of variables that govern the present computation ------------
--------------------------------------------------------------------------------
-
- outvars: echo of selected default values                                      
-   iomode0 =  0 , fftalg0 =512 , wfoptalg0 = 10
-
- outvars: echo of global parameters not present in the input file              
-  max_nthreads =   32
-
 -outvars: echo values of preprocessed input variables --------
-          iomode           1
            acell      1.8897261329E+00  1.8897261329E+00  1.8897261329E+00 Bohr
              amu      2.69815390E+01  9.12240000E+01
           bandpp          16
          chkexit           1
          chkprim           0
      chksymbreak           0
      chksymtnons           0
     densfor_pred           6
             ecut      2.60000000E+01 Hartree
-          fftalg         512
              ixc       -1012
              kpt      2.50000000E-01  2.50000000E-01  2.50000000E-01
                      -2.50000000E-01  2.50000000E-01  2.50000000E-01
                       2.50000000E-01 -2.50000000E-01  2.50000000E-01
                      -2.50000000E-01 -2.50000000E-01  2.50000000E-01
           kptopt           2
         kptrlatt        2    0    0      0    2    0      0    0    2
          kptrlen      5.34950580E+01
P           mkmem           1
            natom         128
            nband         960
            ngfft         125     125     125
          ngfftdg         180     180     180
             nkpt           4
-          npband          30
-        np_spkpt           4
            nstep          50
             nsym           1
           ntypat           2
              occ      2.000000  2.000000  2.000000  2.000000  2.000000  2.000000
                       2.000000  2.000000  2.000000  2.000000  2.000000  2.000000
                       2.000000  2.000000  2.000000  2.000000  2.000000  2.000000
                       2.000000  2.000000  2.000000  2.000000  2.000000  2.000000
                       2.000000  2.000000  2.000000  2.000000  2.000000  2.000000
                       2.000000  2.000000  2.000000  2.000000  2.000000  2.000000
                       2.000000  2.000000  2.000000  2.000000  2.000000  2.000000
                       2.000000  2.000000  2.000000  2.000000  2.000000  2.000000
                       2.000000  2.000000  2.000000  2.000000  2.000000  2.000000
                       2.000000  2.000000  2.000000  2.000000  2.000000  2.000000
                       2.000000  2.000000  2.000000  2.000000  2.000000  2.000000
                       2.000000  2.000000  2.000000  2.000000  2.000000  2.000000
                       2.000000  2.000000  2.000000  2.000000  2.000000  2.000000
                       2.000000  2.000000  2.000000  2.000000  2.000000  2.000000
                       2.000000  2.000000  2.000000  2.000000  2.000000  2.000000
                       2.000000  2.000000  2.000000  2.000000  2.000000  2.000000
                       2.000000  2.000000  2.000000  2.000000  2.000000  2.000000
                       2.000000  2.000000  2.000000  2.000000  2.000000  2.000000
                       2.000000  2.000000  2.000000  2.000000  2.000000  2.000000
                       2.000000  2.000000  2.000000  2.000000  2.000000  2.000000
                       2.000000  2.000000  2.000000  2.000000  2.000000  2.000000
                       2.000000  2.000000  2.000000  2.000000  2.000000  2.000000
                       2.000000  2.000000  2.000000  2.000000  2.000000  2.000000
                       2.000000  2.000000  2.000000  2.000000  2.000000  2.000000
                       2.000000  2.000000  2.000000  2.000000  2.000000  2.000000
                       2.000000  2.000000  2.000000  2.000000  2.000000  2.000000
                       2.000000  2.000000  2.000000  2.000000  2.000000  2.000000
                       2.000000  2.000000  2.000000  2.000000  2.000000  2.000000
                       2.000000  2.000000  2.000000  2.000000  2.000000  2.000000
                       2.000000  2.000000  2.000000  2.000000  2.000000  2.000000
                       2.000000  2.000000  2.000000  2.000000  2.000000  2.000000
                       2.000000  2.000000  2.000000  2.000000  2.000000  2.000000
                       2.000000  2.000000  2.000000  2.000000  2.000000  2.000000
                       2.000000  2.000000  2.000000  2.000000  2.000000  2.000000
                       2.000000  2.000000  2.000000  2.000000  2.000000  2.000000
                       2.000000  2.000000  2.000000  2.000000  2.000000  2.000000
                       2.000000  2.000000  2.000000  2.000000  2.000000  2.000000
                       2.000000  2.000000  2.000000  2.000000  2.000000  2.000000
                       2.000000  2.000000  2.000000  2.000000  2.000000  2.000000
                       2.000000  2.000000  2.000000  2.000000  2.000000  2.000000
                       2.000000  2.000000  2.000000  2.000000  2.000000  2.000000
                       2.000000  2.000000  2.000000  2.000000  2.000000  2.000000
                       2.000000  2.000000  2.000000  2.000000  2.000000  2.000000
                       2.000000  2.000000  2.000000  2.000000  2.000000  2.000000
                       2.000000  2.000000  2.000000  2.000000  2.000000  2.000000
                       2.000000  2.000000  2.000000  2.000000  2.000000  2.000000
                       2.000000  2.000000  2.000000  2.000000  2.000000  2.000000
                       2.000000  2.000000  2.000000  2.000000  2.000000  2.000000
                       2.000000  2.000000  2.000000  2.000000  2.000000  2.000000
                       2.000000  2.000000  2.000000  2.000000  2.000000  2.000000
                       2.000000  2.000000  2.000000  2.000000  2.000000  2.000000
                       2.000000  2.000000  2.000000  2.000000  2.000000  2.000000
                       2.000000  2.000000  2.000000  2.000000  2.000000  2.000000
                       2.000000  2.000000  2.000000  2.000000  2.000000  2.000000
                       2.000000  2.000000  2.000000  2.000000  2.000000  2.000000
                       2.000000  2.000000  2.000000  2.000000  2.000000  2.000000
                       2.000000  2.000000  2.000000  2.000000  2.000000  2.000000
                       2.000000  2.000000  2.000000  2.000000  2.000000  2.000000
                       2.000000  2.000000  2.000000  2.000000  2.000000  2.000000
                       2.000000  2.000000  2.000000  2.000000  2.000000  2.000000
                       2.000000  2.000000  2.000000  2.000000  2.000000  2.000000
                       2.000000  2.000000  2.000000  2.000000  2.000000  2.000000
                       2.000000  2.000000  2.000000  2.000000  2.000000  2.000000
                       2.000000  2.000000  2.000000  2.000000  2.000000  2.000000
                       2.000000  2.000000  2.000000  2.000000  2.000000  2.000000
                       2.000000  2.000000  2.000000  2.000000  2.000000  2.000000
                       2.000000  2.000000  2.000000  2.000000  2.000000  2.000000
                       2.000000  2.000000  2.000000  2.000000  2.000000  2.000000
                       2.000000  2.000000  2.000000  2.000000  2.000000  2.000000
                       2.000000  2.000000  2.000000  2.000000  2.000000  2.000000
                       2.000000  2.000000  2.000000  2.000000  2.000000  2.000000
                       2.000000  2.000000  2.000000  2.000000  2.000000  2.000000
                       2.000000  2.000000  2.000000  2.000000  2.000000  2.000000
                       2.000000  2.000000  2.000000  2.000000  2.000000  2.000000
                       2.000000  2.000000  2.000000  2.000000  2.000000  2.000000
                       2.000000  2.000000  2.000000  2.000000  2.000000  2.000000
                       2.000000  2.000000  2.000000  2.000000  2.000000  2.000000
                       2.000000  2.000000  2.000000  2.000000  2.000000  2.000000
                       2.000000  2.000000  2.000000  2.000000  2.000000  2.000000
                       2.000000  2.000000  2.000000  2.000000  2.000000  2.000000
                       2.000000  2.000000  2.000000  2.000000  2.000000  2.000000
                       2.000000  2.000000  2.000000  2.000000  2.000000  2.000000
                       2.000000  2.000000  2.000000  2.000000  2.000000  2.000000
                       2.000000  2.000000  2.000000  2.000000  2.000000  2.000000
                       2.000000  2.000000  2.000000  2.000000  2.000000  2.000000
                       2.000000  2.000000  2.000000  2.000000  2.000000  2.000000
                       2.000000  2.000000  2.000000  2.000000  2.000000  2.000000
                       2.000000  2.000000  2.000000  2.000000  2.000000  2.000000
                       2.000000  2.000000  2.000000  2.000000  2.000000  2.000000
                       2.000000  2.000000  2.000000  2.000000  2.000000  2.000000
                       2.000000  2.000000  2.000000  2.000000  2.000000  2.000000
                       2.000000  2.000000  2.000000  2.000000  2.000000  2.000000
                       2.000000  2.000000  2.000000  2.000000  2.000000  2.000000
                       2.000000  2.000000  2.000000  2.000000  2.000000  2.000000
                       2.000000  2.000000  2.000000  2.000000  2.000000  2.000000
                       2.000000  2.000000  2.000000  2.000000  2.000000  2.000000
                       2.000000  2.000000  2.000000  2.000000  2.000000  2.000000
                       2.000000  2.000000  2.000000  2.000000  2.000000  2.000000
                       2.000000  2.000000  2.000000  2.000000  2.000000  2.000000
                       2.000000  2.000000  2.000000  2.000000  2.000000  2.000000
                       2.000000  2.000000  2.000000  2.000000  2.000000  2.000000
                       2.000000  2.000000  2.000000  2.000000  2.000000  2.000000
                       2.000000  2.000000  2.000000  2.000000  2.000000  2.000000
                       2.000000  2.000000  2.000000  2.000000  2.000000  2.000000
                       2.000000  2.000000  2.000000  2.000000  2.000000  2.000000
                       2.000000  2.000000  2.000000  2.000000  2.000000  2.000000
                       2.000000  2.000000  2.000000  2.000000  2.000000  2.000000
                       2.000000  2.000000  2.000000  2.000000  2.000000  2.000000
                       2.000000  2.000000  2.000000  2.000000  2.000000  2.000000
                       2.000000  2.000000  2.000000  2.000000  2.000000  2.000000
                       2.000000  2.000000  2.000000  2.000000  2.000000  2.000000
                       2.000000  2.000000  2.000000  2.000000  2.000000  2.000000
                       2.000000  2.000000  2.000000  2.000000  2.000000  2.000000
                       2.000000  2.000000  2.000000  2.000000  2.000000  2.000000
                       2.000000  2.000000  2.000000  2.000000  2.000000  2.000000
                       2.000000  2.000000  2.000000  2.000000  2.000000  2.000000
                       2.000000  2.000000  2.000000  2.000000  2.000000  2.000000
                       2.000000  2.000000  2.000000  2.000000  2.000000  2.000000
                       2.000000  2.000000  2.000000  2.000000  2.000000  2.000000
                       2.000000  2.000000  2.000000  2.000000  2.000000  2.000000
                       2.000000  2.000000  2.000000  2.000000  2.000000  2.000000
                       2.000000  2.000000  2.000000  2.000000  2.000000  2.000000
                       2.000000  2.000000  2.000000  2.000000  2.000000  2.000000
                       2.000000  2.000000  2.000000  2.000000  2.000000  2.000000
                       2.000000  2.000000  2.000000  2.000000  2.000000  2.000000
                       2.000000  2.000000  2.000000  2.000000  2.000000  2.000000
                       2.000000  2.000000  2.000000  2.000000  2.000000  2.000000
                       2.000000  1.000000  0.000000  0.000000  0.000000  0.000000
                       0.000000  0.000000  0.000000  0.000000  0.000000  0.000000
                       0.000000  0.000000  0.000000  0.000000  0.000000  0.000000
                       0.000000  0.000000  0.000000  0.000000  0.000000  0.000000
                       0.000000  0.000000  0.000000  0.000000  0.000000  0.000000
                       0.000000  0.000000  0.000000  0.000000  0.000000  0.000000
                       0.000000  0.000000  0.000000  0.000000  0.000000  0.000000
                       0.000000  0.000000  0.000000  0.000000  0.000000  0.000000
                       0.000000  0.000000  0.000000  0.000000  0.000000  0.000000
                       0.000000  0.000000  0.000000  0.000000  0.000000  0.000000
                       0.000000  0.000000  0.000000  0.000000  0.000000  0.000000
                       0.000000  0.000000  0.000000  0.000000  0.000000  0.000000
                       0.000000  0.000000  0.000000  0.000000  0.000000  0.000000
                       0.000000  0.000000  0.000000  0.000000  0.000000  0.000000
                       0.000000  0.000000  0.000000  0.000000  0.000000  0.000000
                       0.000000  0.000000  0.000000  0.000000  0.000000  0.000000
                       0.000000  0.000000  0.000000  0.000000  0.000000  0.000000
                       0.000000  0.000000  0.000000  0.000000  0.000000  0.000000
                       0.000000  0.000000  0.000000  0.000000  0.000000  0.000000
                       0.000000  0.000000  0.000000  0.000000  0.000000  0.000000
                       0.000000  0.000000  0.000000  0.000000  0.000000  0.000000
                       0.000000  0.000000  0.000000  0.000000  0.000000  0.000000
                       0.000000  0.000000  0.000000  0.000000  0.000000  0.000000
                       0.000000  0.000000  0.000000  0.000000  0.000000  0.000000
                       0.000000  0.000000  0.000000  0.000000  0.000000  0.000000
                       0.000000  0.000000  0.000000  0.000000  0.000000  0.000000
                       0.000000  0.000000  0.000000  0.000000  0.000000  0.000000
                       0.000000  0.000000  0.000000  0.000000  0.000000  0.000000
                       0.000000  0.000000  0.000000  0.000000  0.000000  0.000000
                       0.000000  0.000000  0.000000  0.000000  0.000000  0.000000
                       0.000000  0.000000  0.000000  0.000000  0.000000  0.000000
                       0.000000  0.000000  0.000000  0.000000  0.000000  0.000000
                       0.000000  0.000000  0.000000  0.000000  0.000000  0.000000
                       2.000000  2.000000  2.000000  2.000000  2.000000  2.000000
                       2.000000  2.000000  2.000000  2.000000  2.000000  2.000000
                       2.000000  2.000000  2.000000  2.000000  2.000000  2.000000
                       2.000000  2.000000  2.000000  2.000000  2.000000  2.000000
                       2.000000  2.000000  2.000000  2.000000  2.000000  2.000000
                       2.000000  2.000000  2.000000  2.000000  2.000000  2.000000
                       2.000000  2.000000  2.000000  2.000000  2.000000  2.000000
                       2.000000  2.000000  2.000000  2.000000  2.000000  2.000000
                       2.000000  2.000000  2.000000  2.000000  2.000000  2.000000
                       2.000000  2.000000  2.000000  2.000000  2.000000  2.000000
                       2.000000  2.000000  2.000000  2.000000  2.000000  2.000000
                       2.000000  2.000000  2.000000  2.000000  2.000000  2.000000
                       2.000000  2.000000  2.000000  2.000000  2.000000  2.000000
                       2.000000  2.000000  2.000000  2.000000  2.000000  2.000000
                       2.000000  2.000000  2.000000  2.000000  2.000000  2.000000
                       2.000000  2.000000  2.000000  2.000000  2.000000  2.000000
                       2.000000  2.000000  2.000000  2.000000  2.000000  2.000000
                       2.000000  2.000000  2.000000  2.000000  2.000000  2.000000
                       2.000000  2.000000  2.000000  2.000000  2.000000  2.000000
                       2.000000  2.000000  2.000000  2.000000  2.000000  2.000000
                       2.000000  2.000000  2.000000  2.000000  2.000000  2.000000
                       2.000000  2.000000  2.000000  2.000000  2.000000  2.000000
                       2.000000  2.000000  2.000000  2.000000  2.000000  2.000000
                       2.000000  2.000000  2.000000  2.000000  2.000000  2.000000
                       2.000000  2.000000  2.000000  2.000000  2.000000  2.000000
                       2.000000  2.000000  2.000000  2.000000  2.000000  2.000000
                       2.000000  2.000000  2.000000  2.000000  2.000000  2.000000
                       2.000000  2.000000  2.000000  2.000000  2.000000  2.000000
                       2.000000  2.000000  2.000000  2.000000  2.000000  2.000000
                       2.000000  2.000000  2.000000  2.000000  2.000000  2.000000
                       2.000000  2.000000  2.000000  2.000000  2.000000  2.000000
                       2.000000  2.000000  2.000000  2.000000  2.000000  2.000000
                       2.000000  2.000000  2.000000  2.000000  2.000000  2.000000
                       2.000000  2.000000  2.000000  2.000000  2.000000  2.000000
                       2.000000  2.000000  2.000000  2.000000  2.000000  2.000000
                       2.000000  2.000000  2.000000  2.000000  2.000000  2.000000
                       2.000000  2.000000  2.000000  2.000000  2.000000  2.000000
                       2.000000  2.000000  2.000000  2.000000  2.000000  2.000000
                       2.000000  2.000000  2.000000  2.000000  2.000000  2.000000
                       2.000000  2.000000  2.000000  2.000000  2.000000  2.000000
                       2.000000  2.000000  2.000000  2.000000  2.000000  2.000000
                       2.000000  2.000000  2.000000  2.000000  2.000000  2.000000
                       2.000000  2.000000  2.000000  2.000000  2.000000  2.000000
                       2.000000  2.000000  2.000000  2.000000  2.000000  2.000000
                       2.000000  2.000000  2.000000  2.000000  2.000000  2.000000
                       2.000000  2.000000  2.000000  2.000000  2.000000  2.000000
                       2.000000  2.000000  2.000000  2.000000  2.000000  2.000000
                       2.000000  2.000000  2.000000  2.000000  2.000000  2.000000
                       2.000000  2.000000  2.000000  2.000000  2.000000  2.000000
                       2.000000  2.000000  2.000000  2.000000  2.000000  2.000000
                       2.000000  2.000000  2.000000  2.000000  2.000000  2.000000
                       2.000000  2.000000  2.000000  2.000000  2.000000  2.000000
                       2.000000  2.000000  2.000000  2.000000  2.000000  2.000000
                       2.000000  2.000000  2.000000  2.000000  2.000000  2.000000
                       2.000000  2.000000  2.000000  2.000000  2.000000  2.000000
                       2.000000  2.000000  2.000000  2.000000  2.000000  2.000000
                       2.000000  2.000000  2.000000  2.000000  2.000000  2.000000
                       2.000000  2.000000  2.000000  2.000000  2.000000  2.000000
                       2.000000  2.000000  2.000000  2.000000  2.000000  2.000000
                       2.000000  2.000000  2.000000  2.000000  2.000000  2.000000
                       2.000000  2.000000  2.000000  2.000000  2.000000  2.000000
                       2.000000  2.000000  2.000000  2.000000  2.000000  2.000000
                       2.000000  2.000000  2.000000  2.000000  2.000000  2.000000
                       2.000000  2.000000  2.000000  2.000000  2.000000  2.000000
                       2.000000  2.000000  2.000000  2.000000  2.000000  2.000000
                       2.000000  2.000000  2.000000  2.000000  2.000000  2.000000
                       2.000000  2.000000  2.000000  2.000000  2.000000  2.000000
                       2.000000  2.000000  2.000000  2.000000  2.000000  2.000000
                       2.000000  2.000000  2.000000  2.000000  2.000000  2.000000
                       2.000000  2.000000  2.000000  2.000000  2.000000  2.000000
                       2.000000  2.000000  2.000000  2.000000  2.000000  2.000000
                       2.000000  2.000000  2.000000  2.000000  2.000000  2.000000
                       2.000000  2.000000  2.000000  2.000000  2.000000  2.000000
                       2.000000  2.000000  2.000000  2.000000  2.000000  2.000000
                       2.000000  2.000000  2.000000  2.000000  2.000000  2.000000
                       2.000000  2.000000  2.000000  2.000000  2.000000  2.000000
                       2.000000  2.000000  2.000000  2.000000  2.000000  2.000000
                       2.000000  2.000000  2.000000  2.000000  2.000000  2.000000
                       2.000000  2.000000  2.000000  2.000000  2.000000  2.000000
                       2.000000  2.000000  2.000000  2.000000  2.000000  2.000000
                       2.000000  2.000000  2.000000  2.000000  2.000000  2.000000
                       2.000000  2.000000  2.000000  2.000000  2.000000  2.000000
                       2.000000  2.000000  2.000000  2.000000  2.000000  2.000000
                       2.000000  2.000000  2.000000  2.000000  2.000000  2.000000
                       2.000000  2.000000  2.000000  2.000000  2.000000  2.000000
                       2.000000  2.000000  2.000000  2.000000  2.000000  2.000000
                       2.000000  2.000000  2.000000  2.000000  2.000000  2.000000
                       2.000000  2.000000  2.000000  2.000000  2.000000  2.000000
                       2.000000  2.000000  2.000000  2.000000  2.000000  2.000000
                       2.000000  2.000000  2.000000  2.000000  2.000000  2.000000
                       2.000000  2.000000  2.000000  2.000000  2.000000  2.000000
                       2.000000  2.000000  2.000000  2.000000  2.000000  2.000000
                       2.000000  2.000000  2.000000  2.000000  2.000000  2.000000
                       2.000000  2.000000  2.000000  2.000000  2.000000  2.000000
                       2.000000  2.000000  2.000000  2.000000  2.000000  2.000000
                       2.000000  2.000000  2.000000  2.000000  2.000000  2.000000
                       2.000000  2.000000  2.000000  2.000000  2.000000  2.000000
                       2.000000  2.000000  2.000000  2.000000  2.000000  2.000000
                       2.000000  2.000000  2.000000  2.000000  2.000000  2.000000
                       2.000000  2.000000  2.000000  2.000000  2.000000  2.000000
                       2.000000  2.000000  2.000000  2.000000  2.000000  2.000000
                       2.000000  2.000000  2.000000  2.000000  2.000000  2.000000
                       2.000000  2.000000  2.000000  2.000000  2.000000  2.000000
                       2.000000  2.000000  2.000000  2.000000  2.000000  2.000000
                       2.000000  2.000000  2.000000  2.000000  2.000000  2.000000
                       2.000000  2.000000  2.000000  2.000000  2.000000  2.000000
                       2.000000  2.000000  2.000000  2.000000  2.000000  2.000000
                       2.000000  2.000000  2.000000  2.000000  2.000000  2.000000
                       2.000000  2.000000  2.000000  2.000000  2.000000  2.000000
                       2.000000  2.000000  2.000000  2.000000  2.000000  2.000000
                       2.000000  2.000000  2.000000  2.000000  2.000000  2.000000
                       2.000000  2.000000  2.000000  2.000000  2.000000  2.000000
                       2.000000  2.000000  2.000000  2.000000  2.000000  2.000000
                       2.000000  2.000000  2.000000  2.000000  2.000000  2.000000
                       2.000000  2.000000  2.000000  2.000000  2.000000  2.000000
                       2.000000  2.000000  2.000000  2.000000  2.000000  2.000000
                       2.000000  2.000000  2.000000  2.000000  2.000000  2.000000
                       2.000000  2.000000  2.000000  2.000000  2.000000  2.000000
                       2.000000  2.000000  2.000000  2.000000  2.000000  2.000000
                       2.000000  2.000000  2.000000  2.000000  2.000000  2.000000
                       2.000000  2.000000  2.000000  2.000000  2.000000  2.000000
                       2.000000  2.000000  2.000000  2.000000  2.000000  2.000000
                       2.000000  2.000000  2.000000  2.000000  2.000000  2.000000
                       2.000000  2.000000  2.000000  2.000000  2.000000  2.000000
                       2.000000  2.000000  2.000000  2.000000  2.000000  2.000000
                       2.000000  2.000000  2.000000  2.000000  2.000000  2.000000
                       2.000000  2.000000  2.000000  2.000000  2.000000  2.000000
                       2.000000  1.000000  0.000000  0.000000  0.000000  0.000000
                       0.000000  0.000000  0.000000  0.000000  0.000000  0.000000
                       0.000000  0.000000  0.000000  0.000000  0.000000  0.000000
                       0.000000  0.000000  0.000000  0.000000  0.000000  0.000000
                       0.000000  0.000000  0.000000  0.000000  0.000000  0.000000
                       0.000000  0.000000  0.000000  0.000000  0.000000  0.000000
                       0.000000  0.000000  0.000000  0.000000  0.000000  0.000000
                       0.000000  0.000000  0.000000  0.000000  0.000000  0.000000
                       0.000000  0.000000  0.000000  0.000000  0.000000  0.000000
                       0.000000  0.000000  0.000000  0.000000  0.000000  0.000000
                       0.000000  0.000000  0.000000  0.000000  0.000000  0.000000
                       0.000000  0.000000  0.000000  0.000000  0.000000  0.000000
                       0.000000  0.000000  0.000000  0.000000  0.000000  0.000000
                       0.000000  0.000000  0.000000  0.000000  0.000000  0.000000
                       0.000000  0.000000  0.000000  0.000000  0.000000  0.000000
                       0.000000  0.000000  0.000000  0.000000  0.000000  0.000000
                       0.000000  0.000000  0.000000  0.000000  0.000000  0.000000
                       0.000000  0.000000  0.000000  0.000000  0.000000  0.000000
                       0.000000  0.000000  0.000000  0.000000  0.000000  0.000000
                       0.000000  0.000000  0.000000  0.000000  0.000000  0.000000
                       0.000000  0.000000  0.000000  0.000000  0.000000  0.000000
                       0.000000  0.000000  0.000000  0.000000  0.000000  0.000000
                       0.000000  0.000000  0.000000  0.000000  0.000000  0.000000
                       0.000000  0.000000  0.000000  0.000000  0.000000  0.000000
                       0.000000  0.000000  0.000000  0.000000  0.000000  0.000000
                       0.000000  0.000000  0.000000  0.000000  0.000000  0.000000
                       0.000000  0.000000  0.000000  0.000000  0.000000  0.000000
                       0.000000  0.000000  0.000000  0.000000  0.000000  0.000000
                       0.000000  0.000000  0.000000  0.000000  0.000000  0.000000
                       0.000000  0.000000  0.000000  0.000000  0.000000  0.000000
                       0.000000  0.000000  0.000000  0.000000  0.000000  0.000000
                       0.000000  0.000000  0.000000  0.000000  0.000000  0.000000
                       0.000000  0.000000  0.000000  0.000000  0.000000  0.000000
                       2.000000  2.000000  2.000000  2.000000  2.000000  2.000000
                       2.000000  2.000000  2.000000  2.000000  2.000000  2.000000
                       2.000000  2.000000  2.000000  2.000000  2.000000  2.000000
                       2.000000  2.000000  2.000000  2.000000  2.000000  2.000000
                       2.000000  2.000000  2.000000  2.000000  2.000000  2.000000
                       2.000000  2.000000  2.000000  2.000000  2.000000  2.000000
                       2.000000  2.000000  2.000000  2.000000  2.000000  2.000000
                       2.000000  2.000000  2.000000  2.000000  2.000000  2.000000
                       2.000000  2.000000  2.000000  2.000000  2.000000  2.000000
                       2.000000  2.000000  2.000000  2.000000  2.000000  2.000000
                       2.000000  2.000000  2.000000  2.000000  2.000000  2.000000
                       2.000000  2.000000  2.000000  2.000000  2.000000  2.000000
                       2.000000  2.000000  2.000000  2.000000  2.000000  2.000000
                       2.000000  2.000000  2.000000  2.000000  2.000000  2.000000
                       2.000000  2.000000  2.000000  2.000000  2.000000  2.000000
                       2.000000  2.000000  2.000000  2.000000  2.000000  2.000000
                       2.000000  2.000000  2.000000  2.000000  2.000000  2.000000
                       2.000000  2.000000  2.000000  2.000000  2.000000  2.000000
                       2.000000  2.000000  2.000000  2.000000  2.000000  2.000000
                       2.000000  2.000000  2.000000  2.000000  2.000000  2.000000
                       2.000000  2.000000  2.000000  2.000000  2.000000  2.000000
                       2.000000  2.000000  2.000000  2.000000  2.000000  2.000000
                       2.000000  2.000000  2.000000  2.000000  2.000000  2.000000
                       2.000000  2.000000  2.000000  2.000000  2.000000  2.000000
                       2.000000  2.000000  2.000000  2.000000  2.000000  2.000000
                       2.000000  2.000000  2.000000  2.000000  2.000000  2.000000
                       2.000000  2.000000  2.000000  2.000000  2.000000  2.000000
                       2.000000  2.000000  2.000000  2.000000  2.000000  2.000000
                       2.000000  2.000000  2.000000  2.000000  2.000000  2.000000
                       2.000000  2.000000  2.000000  2.000000  2.000000  2.000000
                       2.000000  2.000000  2.000000  2.000000  2.000000  2.000000
                       2.000000  2.000000  2.000000  2.000000  2.000000  2.000000
                       2.000000  2.000000  2.000000  2.000000  2.000000  2.000000
                       2.000000  2.000000  2.000000  2.000000  2.000000  2.000000
                       2.000000  2.000000  2.000000  2.000000  2.000000  2.000000
                       2.000000  2.000000  2.000000  2.000000  2.000000  2.000000
                       2.000000  2.000000  2.000000  2.000000  2.000000  2.000000
                       2.000000  2.000000  2.000000  2.000000  2.000000  2.000000
                       2.000000  2.000000  2.000000  2.000000  2.000000  2.000000
                       2.000000  2.000000  2.000000  2.000000  2.000000  2.000000
                       2.000000  2.000000  2.000000  2.000000  2.000000  2.000000
                       2.000000  2.000000  2.000000  2.000000  2.000000  2.000000
                       2.000000  2.000000  2.000000  2.000000  2.000000  2.000000
                       2.000000  2.000000  2.000000  2.000000  2.000000  2.000000
                       2.000000  2.000000  2.000000  2.000000  2.000000  2.000000
                       2.000000  2.000000  2.000000  2.000000  2.000000  2.000000
                       2.000000  2.000000  2.000000  2.000000  2.000000  2.000000
                       2.000000  2.000000  2.000000  2.000000  2.000000  2.000000
                       2.000000  2.000000  2.000000  2.000000  2.000000  2.000000
                       2.000000  2.000000  2.000000  2.000000  2.000000  2.000000
                       2.000000  2.000000  2.000000  2.000000  2.000000  2.000000
                       2.000000  2.000000  2.000000  2.000000  2.000000  2.000000
                       2.000000  2.000000  2.000000  2.000000  2.000000  2.000000
                       2.000000  2.000000  2.000000  2.000000  2.000000  2.000000
                       2.000000  2.000000  2.000000  2.000000  2.000000  2.000000
                       2.000000  2.000000  2.000000  2.000000  2.000000  2.000000
                       2.000000  2.000000  2.000000  2.000000  2.000000  2.000000
                       2.000000  2.000000  2.000000  2.000000  2.000000  2.000000
                       2.000000  2.000000  2.000000  2.000000  2.000000  2.000000
                       2.000000  2.000000  2.000000  2.000000  2.000000  2.000000
                       2.000000  2.000000  2.000000  2.000000  2.000000  2.000000
                       2.000000  2.000000  2.000000  2.000000  2.000000  2.000000
                       2.000000  2.000000  2.000000  2.000000  2.000000  2.000000
                       2.000000  2.000000  2.000000  2.000000  2.000000  2.000000
                       2.000000  2.000000  2.000000  2.000000  2.000000  2.000000
                       2.000000  2.000000  2.000000  2.000000  2.000000  2.000000
                       2.000000  2.000000  2.000000  2.000000  2.000000  2.000000
                       2.000000  2.000000  2.000000  2.000000  2.000000  2.000000
                       2.000000  2.000000  2.000000  2.000000  2.000000  2.000000
                       2.000000  2.000000  2.000000  2.000000  2.000000  2.000000
                       2.000000  2.000000  2.000000  2.000000  2.000000  2.000000
                       2.000000  2.000000  2.000000  2.000000  2.000000  2.000000
                       2.000000  2.000000  2.000000  2.000000  2.000000  2.000000
                       2.000000  2.000000  2.000000  2.000000  2.000000  2.000000
                       2.000000  2.000000  2.000000  2.000000  2.000000  2.000000
                       2.000000  2.000000  2.000000  2.000000  2.000000  2.000000
                       2.000000  2.000000  2.000000  2.000000  2.000000  2.000000
                       2.000000  2.000000  2.000000  2.000000  2.000000  2.000000
                       2.000000  2.000000  2.000000  2.000000  2.000000  2.000000
                       2.000000  2.000000  2.000000  2.000000  2.000000  2.000000
                       2.000000  2.000000  2.000000  2.000000  2.000000  2.000000
                       2.000000  2.000000  2.000000  2.000000  2.000000  2.000000
                       2.000000  2.000000  2.000000  2.000000  2.000000  2.000000
                       2.000000  2.000000  2.000000  2.000000  2.000000  2.000000
                       2.000000  2.000000  2.000000  2.000000  2.000000  2.000000
                       2.000000  2.000000  2.000000  2.000000  2.000000  2.000000
                       2.000000  2.000000  2.000000  2.000000  2.000000  2.000000
                       2.000000  2.000000  2.000000  2.000000  2.000000  2.000000
                       2.000000  2.000000  2.000000  2.000000  2.000000  2.000000
                       2.000000  2.000000  2.000000  2.000000  2.000000  2.000000
                       2.000000  2.000000  2.000000  2.000000  2.000000  2.000000
                       2.000000  2.000000  2.000000  2.000000  2.000000  2.000000
                       2.000000  2.000000  2.000000  2.000000  2.000000  2.000000
                       2.000000  2.000000  2.000000  2.000000  2.000000  2.000000
                       2.000000  2.000000  2.000000  2.000000  2.000000  2.000000
                       2.000000  2.000000  2.000000  2.000000  2.000000  2.000000
                       2.000000  2.000000  2.000000  2.000000  2.000000  2.000000
                       2.000000  2.000000  2.000000  2.000000  2.000000  2.000000
                       2.000000  2.000000  2.000000  2.000000  2.000000  2.000000
                       2.000000  2.000000  2.000000  2.000000  2.000000  2.000000
                       2.000000  2.000000  2.000000  2.000000  2.000000  2.000000
                       2.000000  2.000000  2.000000  2.000000  2.000000  2.000000
                       2.000000  2.000000  2.000000  2.000000  2.000000  2.000000
                       2.000000  2.000000  2.000000  2.000000  2.000000  2.000000
                       2.000000  2.000000  2.000000  2.000000  2.000000  2.000000
                       2.000000  2.000000  2.000000  2.000000  2.000000  2.000000
                       2.000000  2.000000  2.000000  2.000000  2.000000  2.000000
                       2.000000  2.000000  2.000000  2.000000  2.000000  2.000000
                       2.000000  2.000000  2.000000  2.000000  2.000000  2.000000
                       2.000000  2.000000  2.000000  2.000000  2.000000  2.000000
                       2.000000  2.000000  2.000000  2.000000  2.000000  2.000000
                       2.000000  2.000000  2.000000  2.000000  2.000000  2.000000
                       2.000000  2.000000  2.000000  2.000000  2.000000  2.000000
                       2.000000  2.000000  2.000000  2.000000  2.000000  2.000000
                       2.000000  2.000000  2.000000  2.000000  2.000000  2.000000
                       2.000000  2.000000  2.000000  2.000000  2.000000  2.000000
                       2.000000  2.000000  2.000000  2.000000  2.000000  2.000000
                       2.000000  2.000000  2.000000  2.000000  2.000000  2.000000
                       2.000000  2.000000  2.000000  2.000000  2.000000  2.000000
                       2.000000  2.000000  2.000000  2.000000  2.000000  2.000000
                       2.000000  2.000000  2.000000  2.000000  2.000000  2.000000
                       2.000000  2.000000  2.000000  2.000000  2.000000  2.000000
                       2.000000  2.000000  2.000000  2.000000  2.000000  2.000000
                       2.000000  2.000000  2.000000  2.000000  2.000000  2.000000
                       2.000000  2.000000  2.000000  2.000000  2.000000  2.000000
                       2.000000  2.000000  2.000000  2.000000  2.000000  2.000000
                       2.000000  2.000000  2.000000  2.000000  2.000000  2.000000
                       2.000000  1.000000  0.000000  0.000000  0.000000  0.000000
                       0.000000  0.000000  0.000000  0.000000  0.000000  0.000000
                       0.000000  0.000000  0.000000  0.000000  0.000000  0.000000
                       0.000000  0.000000  0.000000  0.000000  0.000000  0.000000
                       0.000000  0.000000  0.000000  0.000000  0.000000  0.000000
                       0.000000  0.000000  0.000000  0.000000  0.000000  0.000000
                       0.000000  0.000000  0.000000  0.000000  0.000000  0.000000
                       0.000000  0.000000  0.000000  0.000000  0.000000  0.000000
                       0.000000  0.000000  0.000000  0.000000  0.000000  0.000000
                       0.000000  0.000000  0.000000  0.000000  0.000000  0.000000
                       0.000000  0.000000  0.000000  0.000000  0.000000  0.000000
                       0.000000  0.000000  0.000000  0.000000  0.000000  0.000000
                       0.000000  0.000000  0.000000  0.000000  0.000000  0.000000
                       0.000000  0.000000  0.000000  0.000000  0.000000  0.000000
                       0.000000  0.000000  0.000000  0.000000  0.000000  0.000000
                       0.000000  0.000000  0.000000  0.000000  0.000000  0.000000
                       0.000000  0.000000  0.000000  0.000000  0.000000  0.000000
                       0.000000  0.000000  0.000000  0.000000  0.000000  0.000000
                       0.000000  0.000000  0.000000  0.000000  0.000000  0.000000
                       0.000000  0.000000  0.000000  0.000000  0.000000  0.000000
                       0.000000  0.000000  0.000000  0.000000  0.000000  0.000000
                       0.000000  0.000000  0.000000  0.000000  0.000000  0.000000
                       0.000000  0.000000  0.000000  0.000000  0.000000  0.000000
                       0.000000  0.000000  0.000000  0.000000  0.000000  0.000000
                       0.000000  0.000000  0.000000  0.000000  0.000000  0.000000
                       0.000000  0.000000  0.000000  0.000000  0.000000  0.000000
                       0.000000  0.000000  0.000000  0.000000  0.000000  0.000000
                       0.000000  0.000000  0.000000  0.000000  0.000000  0.000000
                       0.000000  0.000000  0.000000  0.000000  0.000000  0.000000
                       0.000000  0.000000  0.000000  0.000000  0.000000  0.000000
                       0.000000  0.000000  0.000000  0.000000  0.000000  0.000000
                       0.000000  0.000000  0.000000  0.000000  0.000000  0.000000
                       0.000000  0.000000  0.000000  0.000000  0.000000  0.000000
                       2.000000  2.000000  2.000000  2.000000  2.000000  2.000000
                       2.000000  2.000000  2.000000  2.000000  2.000000  2.000000
                       2.000000  2.000000  2.000000  2.000000  2.000000  2.000000
                       2.000000  2.000000  2.000000  2.000000  2.000000  2.000000
                       2.000000  2.000000  2.000000  2.000000  2.000000  2.000000
                       2.000000  2.000000  2.000000  2.000000  2.000000  2.000000
                       2.000000  2.000000  2.000000  2.000000  2.000000  2.000000
                       2.000000  2.000000  2.000000  2.000000  2.000000  2.000000
                       2.000000  2.000000  2.000000  2.000000  2.000000  2.000000
                       2.000000  2.000000  2.000000  2.000000  2.000000  2.000000
                       2.000000  2.000000  2.000000  2.000000  2.000000  2.000000
                       2.000000  2.000000  2.000000  2.000000  2.000000  2.000000
                       2.000000  2.000000  2.000000  2.000000  2.000000  2.000000
                       2.000000  2.000000  2.000000  2.000000  2.000000  2.000000
                       2.000000  2.000000  2.000000  2.000000  2.000000  2.000000
                       2.000000  2.000000  2.000000  2.000000  2.000000  2.000000
                       2.000000  2.000000  2.000000  2.000000  2.000000  2.000000
                       2.000000  2.000000  2.000000  2.000000  2.000000  2.000000
                       2.000000  2.000000  2.000000  2.000000  2.000000  2.000000
                       2.000000  2.000000  2.000000  2.000000  2.000000  2.000000
                       2.000000  2.000000  2.000000  2.000000  2.000000  2.000000
                       2.000000  2.000000  2.000000  2.000000  2.000000  2.000000
                       2.000000  2.000000  2.000000  2.000000  2.000000  2.000000
                       2.000000  2.000000  2.000000  2.000000  2.000000  2.000000
                       2.000000  2.000000  2.000000  2.000000  2.000000  2.000000
                       2.000000  2.000000  2.000000  2.000000  2.000000  2.000000
                       2.000000  2.000000  2.000000  2.000000  2.000000  2.000000
                       2.000000  2.000000  2.000000  2.000000  2.000000  2.000000
                       2.000000  2.000000  2.000000  2.000000  2.000000  2.000000
                       2.000000  2.000000  2.000000  2.000000  2.000000  2.000000
                       2.000000  2.000000  2.000000  2.000000  2.000000  2.000000
                       2.000000  2.000000  2.000000  2.000000  2.000000  2.000000
                       2.000000  2.000000  2.000000  2.000000  2.000000  2.000000
                       2.000000  2.000000  2.000000  2.000000  2.000000  2.000000
                       2.000000  2.000000  2.000000  2.000000  2.000000  2.000000
                       2.000000  2.000000  2.000000  2.000000  2.000000  2.000000
                       2.000000  2.000000  2.000000  2.000000  2.000000  2.000000
                       2.000000  2.000000  2.000000  2.000000  2.000000  2.000000
                       2.000000  2.000000  2.000000  2.000000  2.000000  2.000000
                       2.000000  2.000000  2.000000  2.000000  2.000000  2.000000
                       2.000000  2.000000  2.000000  2.000000  2.000000  2.000000
                       2.000000  2.000000  2.000000  2.000000  2.000000  2.000000
                       2.000000  2.000000  2.000000  2.000000  2.000000  2.000000
                       2.000000  2.000000  2.000000  2.000000  2.000000  2.000000
                       2.000000  2.000000  2.000000  2.000000  2.000000  2.000000
                       2.000000  2.000000  2.000000  2.000000  2.000000  2.000000
                       2.000000  2.000000  2.000000  2.000000  2.000000  2.000000
                       2.000000  2.000000  2.000000  2.000000  2.000000  2.000000
                       2.000000  2.000000  2.000000  2.000000  2.000000  2.000000
                       2.000000  2.000000  2.000000  2.000000  2.000000  2.000000
                       2.000000  2.000000  2.000000  2.000000  2.000000  2.000000
                       2.000000  2.000000  2.000000  2.000000  2.000000  2.000000
                       2.000000  2.000000  2.000000  2.000000  2.000000  2.000000
                       2.000000  2.000000  2.000000  2.000000  2.000000  2.000000
                       2.000000  2.000000  2.000000  2.000000  2.000000  2.000000
                       2.000000  2.000000  2.000000  2.000000  2.000000  2.000000
                       2.000000  2.000000  2.000000  2.000000  2.000000  2.000000
                       2.000000  2.000000  2.000000  2.000000  2.000000  2.000000
                       2.000000  2.000000  2.000000  2.000000  2.000000  2.000000
                       2.000000  2.000000  2.000000  2.000000  2.000000  2.000000
                       2.000000  2.000000  2.000000  2.000000  2.000000  2.000000
                       2.000000  2.000000  2.000000  2.000000  2.000000  2.000000
                       2.000000  2.000000  2.000000  2.000000  2.000000  2.000000
                       2.000000  2.000000  2.000000  2.000000  2.000000  2.000000
                       2.000000  2.000000  2.000000  2.000000  2.000000  2.000000
                       2.000000  2.000000  2.000000  2.000000  2.000000  2.000000
                       2.000000  2.000000  2.000000  2.000000  2.000000  2.000000
                       2.000000  2.000000  2.000000  2.000000  2.000000  2.000000
                       2.000000  2.000000  2.000000  2.000000  2.000000  2.000000
                       2.000000  2.000000  2.000000  2.000000  2.000000  2.000000
                       2.000000  2.000000  2.000000  2.000000  2.000000  2.000000
                       2.000000  2.000000  2.000000  2.000000  2.000000  2.000000
                       2.000000  2.000000  2.000000  2.000000  2.000000  2.000000
                       2.000000  2.000000  2.000000  2.000000  2.000000  2.000000
                       2.000000  2.000000  2.000000  2.000000  2.000000  2.000000
                       2.000000  2.000000  2.000000  2.000000  2.000000  2.000000
                       2.000000  2.000000  2.000000  2.000000  2.000000  2.000000
                       2.000000  2.000000  2.000000  2.000000  2.000000  2.000000
                       2.000000  2.000000  2.000000  2.000000  2.000000  2.000000
                       2.000000  2.000000  2.000000  2.000000  2.000000  2.000000
                       2.000000  2.000000  2.000000  2.000000  2.000000  2.000000
                       2.000000  2.000000  2.000000  2.000000  2.000000  2.000000
                       2.000000  2.000000  2.000000  2.000000  2.000000  2.000000
                       2.000000  2.000000  2.000000  2.000000  2.000000  2.000000
                       2.000000  2.000000  2.000000  2.000000  2.000000  2.000000
                       2.000000  2.000000  2.000000  2.000000  2.000000  2.000000
                       2.000000  2.000000  2.000000  2.000000  2.000000  2.000000
                       2.000000  2.000000  2.000000  2.000000  2.000000  2.000000
                       2.000000  2.000000  2.000000  2.000000  2.000000  2.000000
                       2.000000  2.000000  2.000000  2.000000  2.000000  2.000000
                       2.000000  2.000000  2.000000  2.000000  2.000000  2.000000
                       2.000000  2.000000  2.000000  2.000000  2.000000  2.000000
                       2.000000  2.000000  2.000000  2.000000  2.000000  2.000000
                       2.000000  2.000000  2.000000  2.000000  2.000000  2.000000
                       2.000000  2.000000  2.000000  2.000000  2.000000  2.000000
                       2.000000  2.000000  2.000000  2.000000  2.000000  2.000000
                       2.000000  2.000000  2.000000  2.000000  2.000000  2.000000
                       2.000000  2.000000  2.000000  2.000000  2.000000  2.000000
                       2.000000  2.000000  2.000000  2.000000  2.000000  2.000000
                       2.000000  2.000000  2.000000  2.000000  2.000000  2.000000
                       2.000000  2.000000  2.000000  2.000000  2.000000  2.000000
                       2.000000  2.000000  2.000000  2.000000  2.000000  2.000000
                       2.000000  2.000000  2.000000  2.000000  2.000000  2.000000
                       2.000000  2.000000  2.000000  2.000000  2.000000  2.000000
                       2.000000  2.000000  2.000000  2.000000  2.000000  2.000000
                       2.000000  2.000000  2.000000  2.000000  2.000000  2.000000
                       2.000000  2.000000  2.000000  2.000000  2.000000  2.000000
                       2.000000  2.000000  2.000000  2.000000  2.000000  2.000000
                       2.000000  2.000000  2.000000  2.000000  2.000000  2.000000
                       2.000000  2.000000  2.000000  2.000000  2.000000  2.000000
                       2.000000  2.000000  2.000000  2.000000  2.000000  2.000000
                       2.000000  2.000000  2.000000  2.000000  2.000000  2.000000
                       2.000000  2.000000  2.000000  2.000000  2.000000  2.000000
                       2.000000  2.000000  2.000000  2.000000  2.000000  2.000000
                       2.000000  2.000000  2.000000  2.000000  2.000000  2.000000
                       2.000000  2.000000  2.000000  2.000000  2.000000  2.000000
                       2.000000  2.000000  2.000000  2.000000  2.000000  2.000000
                       2.000000  2.000000  2.000000  2.000000  2.000000  2.000000
                       2.000000  2.000000  2.000000  2.000000  2.000000  2.000000
                       2.000000  2.000000  2.000000  2.000000  2.000000  2.000000
                       2.000000  2.000000  2.000000  2.000000  2.000000  2.000000
                       2.000000  2.000000  2.000000  2.000000  2.000000  2.000000
                       2.000000  2.000000  2.000000  2.000000  2.000000  2.000000
                       2.000000  2.000000  2.000000  2.000000  2.000000  2.000000
                       2.000000  2.000000  2.000000  2.000000  2.000000  2.000000
                       2.000000  2.000000  2.000000  2.000000  2.000000  2.000000
                       2.000000  2.000000  2.000000  2.000000  2.000000  2.000000
                       2.000000  1.000000  0.000000  0.000000  0.000000  0.000000
                       0.000000  0.000000  0.000000  0.000000  0.000000  0.000000
                       0.000000  0.000000  0.000000  0.000000  0.000000  0.000000
                       0.000000  0.000000  0.000000  0.000000  0.000000  0.000000
                       0.000000  0.000000  0.000000  0.000000  0.000000  0.000000
                       0.000000  0.000000  0.000000  0.000000  0.000000  0.000000
                       0.000000  0.000000  0.000000  0.000000  0.000000  0.000000
                       0.000000  0.000000  0.000000  0.000000  0.000000  0.000000
                       0.000000  0.000000  0.000000  0.000000  0.000000  0.000000
                       0.000000  0.000000  0.000000  0.000000  0.000000  0.000000
                       0.000000  0.000000  0.000000  0.000000  0.000000  0.000000
                       0.000000  0.000000  0.000000  0.000000  0.000000  0.000000
                       0.000000  0.000000  0.000000  0.000000  0.000000  0.000000
                       0.000000  0.000000  0.000000  0.000000  0.000000  0.000000
                       0.000000  0.000000  0.000000  0.000000  0.000000  0.000000
                       0.000000  0.000000  0.000000  0.000000  0.000000  0.000000
                       0.000000  0.000000  0.000000  0.000000  0.000000  0.000000
                       0.000000  0.000000  0.000000  0.000000  0.000000  0.000000
                       0.000000  0.000000  0.000000  0.000000  0.000000  0.000000
                       0.000000  0.000000  0.000000  0.000000  0.000000  0.000000
                       0.000000  0.000000  0.000000  0.000000  0.000000  0.000000
                       0.000000  0.000000  0.000000  0.000000  0.000000  0.000000
                       0.000000  0.000000  0.000000  0.000000  0.000000  0.000000
                       0.000000  0.000000  0.000000  0.000000  0.000000  0.000000
                       0.000000  0.000000  0.000000  0.000000  0.000000  0.000000
                       0.000000  0.000000  0.000000  0.000000  0.000000  0.000000
                       0.000000  0.000000  0.000000  0.000000  0.000000  0.000000
                       0.000000  0.000000  0.000000  0.000000  0.000000  0.000000
                       0.000000  0.000000  0.000000  0.000000  0.000000  0.000000
                       0.000000  0.000000  0.000000  0.000000  0.000000  0.000000
                       0.000000  0.000000  0.000000  0.000000  0.000000  0.000000
                       0.000000  0.000000  0.000000  0.000000  0.000000  0.000000
                       0.000000  0.000000  0.000000  0.000000  0.000000  0.000000
           occopt           3
        paral_kgb           1
        pawecutdg      5.40000000E+01 Hartree
          pawovlp     -1.0000000000E+00
            prtwf           0
            rprim      1.4154182730E+01  0.0000000000E+00  0.0000000000E+00
                       0.0000000000E+00  1.4154182730E+01  0.0000000000E+00
                       0.0000000000E+00  0.0000000000E+00  1.4154182730E+01
           shiftk      5.00000000E-01  5.00000000E-01  5.00000000E-01
          spgroup           1
           timopt          -1
           tolvrs      1.00000000E-11
           tsmear      1.10247976E+01 Hartree
            typat      1  2  2  2  2  2  2  2  2  2  2  2  2  2  2  2  2  2  2  2
                       2  2  2  2  2  2  2  2  2  2  2  2  2  2  2  2  2  2  2  2
                       2  2  2  2  2  2  2  2  2  2  2  2  2  2  2  2  2  2  2  2
                       2  2  2  2  2  2  2  2  2  2  2  2  2  2  2  2  2  2  2  2
                       2  2  2  2  2  2  2  2  2  2  2  2  2  2  2  2  2  2  2  2
                       2  2  2  2  2  2  2  2  2  2  2  2  2  2  2  2  2  2  2  2
                       2  2  2  2  2  2  2  2
           useylm           1
         wfoptalg         114
              wtk        0.25000    0.25000    0.25000    0.25000
           xangst      3.9225988368E-02  6.6690765777E-02 -3.6756928802E-02
                       1.7321645095E+00  1.7437178134E+00  1.6953870466E+00
                       4.7790476802E-02  1.9138575390E-02  3.5058460199E+00
                       1.7387522328E+00  1.6422057498E+00  5.2077468270E+00
                       1.2015295401E-01 -1.2911357013E-02  6.9838763296E+00
                       1.7800196597E+00  1.6663552795E+00  8.6801871061E+00
                       2.0497247133E-02 -1.4558999941E-02  1.0464581045E+01
                       1.8130667004E+00  1.8020499602E+00  1.2264319343E+01
                       1.1938727369E-02  3.5102758587E+00  4.6107151281E-02
                       1.7456079468E+00  5.1967539193E+00  1.7161004726E+00
                       8.4457932117E-02  3.4868596427E+00  3.4690927176E+00
                       1.7798806859E+00  5.1423724230E+00  5.2284446057E+00
                      -2.0469894510E-02  3.4564811564E+00  6.9642373590E+00
                       1.7576981340E+00  5.2308674471E+00  8.7624611460E+00
                       8.6221624832E-02  3.3755100253E+00  1.0493541866E+01
                       1.7535097925E+00  5.2572436107E+00  1.2241367358E+01
                       1.3556195928E-02  6.9877154324E+00 -3.9872499632E-02
                       1.7825480392E+00  8.7273580975E+00  1.6554642145E+00
                      -2.9332777448E-02  6.9348748382E+00  3.5584928663E+00
                       1.7178302976E+00  8.6549886630E+00  5.3102663258E+00
                       3.9545937684E-03  6.9782288018E+00  6.9496669445E+00
                       1.7679057310E+00  8.6613589565E+00  8.6889381282E+00
                       9.2068807891E-02  7.0717210300E+00  1.0407040766E+01
                       1.8667032262E+00  8.6784518772E+00  1.2243683381E+01
                       2.5517990266E-02  1.0402093302E+01 -3.6252493457E-02
                       1.6780390421E+00  1.2183210463E+01  1.6651856805E+00
                       3.0448680657E-03  1.0523156086E+01  3.5307181345E+00
                       1.7678023870E+00  1.2271909932E+01  5.1535491529E+00
                      -1.7248964645E-01  1.0394033024E+01  6.9242043104E+00
                       1.7546351276E+00  1.2229697143E+01  8.6912614326E+00
                       3.9902954728E-02  1.0503703534E+01  1.0470680567E+01
                       1.6820481441E+00  1.2176198109E+01  1.2251771056E+01
                       3.4424373711E+00  3.3659896844E-03  4.7562006563E-03
                       5.2587589915E+00  1.7349328504E+00  1.7029902157E+00
                       3.4668056562E+00  9.4455671960E-02  3.5154947078E+00
                       5.1669221633E+00  1.6919696524E+00  5.2002898597E+00
                       3.4893571705E+00  1.2708493359E-01  6.9121283274E+00
                       5.2465723551E+00  1.8015192910E+00  8.7523259586E+00
                       3.4791421285E+00  3.5849759976E-02  1.0377361940E+01
                       5.1862258104E+00  1.6999281615E+00  1.2186737896E+01
                       3.4188743040E+00  3.5094272720E+00 -5.2658757269E-03
                       5.2594966509E+00  5.2377760864E+00  1.6127992063E+00
                       3.5809221240E+00  3.5389304916E+00  3.4796952058E+00
                       5.1814175809E+00  5.2713882208E+00  5.2626526820E+00
                       3.4935390298E+00  3.4480532272E+00  6.8972558373E+00
                       5.1498691984E+00  5.2867337981E+00  8.6915514705E+00
                       3.4538097335E+00  3.4320347615E+00  1.0472738138E+01
                       5.2326417551E+00  5.2978033704E+00  1.2133476535E+01
                       3.4666239518E+00  6.9544658029E+00  6.2231727733E-02
                       5.1530825492E+00  8.7031656989E+00  1.7957668380E+00
                       3.5215915261E+00  6.9578033917E+00  3.4818599625E+00
                       5.1295713597E+00  8.6776244687E+00  5.1857159855E+00
                       3.5109336716E+00  6.9089037781E+00  7.0508464225E+00
                       5.2616361696E+00  8.6441020278E+00  8.8046515675E+00
                       3.4447641898E+00  7.0267531665E+00  1.0425226300E+01
                       5.2427119267E+00  8.6844672756E+00  1.2069855714E+01
                       3.4657950786E+00  1.0373393187E+01  6.1231725645E-02
                       5.3184845666E+00  1.2118195861E+01  1.6799616002E+00
                       3.5108825069E+00  1.0486996326E+01  3.5111910552E+00
                       5.2810720293E+00  1.2215500128E+01  5.2144682975E+00
                       3.3898531420E+00  1.0507345656E+01  6.9388515911E+00
                       5.3007531174E+00  1.2276989915E+01  8.6877296175E+00
                       3.4013188910E+00  1.0508953138E+01  1.0394855868E+01
                       5.2433818469E+00  1.2245457955E+01  1.2088329580E+01
                       6.9700003842E+00  3.7132867294E-02 -4.9875372774E-02
                       8.5763428814E+00  1.7350697216E+00  1.8377391845E+00
                       7.0021304971E+00 -1.1471204520E-01  3.4543904349E+00
                       8.6053989185E+00  1.6519102217E+00  5.1849488513E+00
                       6.9855744999E+00  3.7220006373E-02  7.0430840932E+00
                       8.6613605853E+00  1.8326089637E+00  8.7003424908E+00
                       6.9508668873E+00  8.2613027359E-02  1.0471102100E+01
                       8.7031499354E+00  1.6781588999E+00  1.2205918976E+01
                       7.0100885657E+00  3.3874043389E+00  4.9049293231E-02
                       8.6969406246E+00  5.1926646808E+00  1.7581104772E+00
                       6.9301620290E+00  3.5962063508E+00  3.4550686284E+00
                       8.6747665625E+00  5.1884847879E+00  5.2508871621E+00
                       7.0318002268E+00  3.4177859621E+00  6.9935615859E+00
                       8.6656778829E+00  5.2825684303E+00  8.6344061836E+00
                       6.9130800753E+00  3.4273016124E+00  1.0453005482E+01
                       8.7808534389E+00  5.1606556795E+00  1.2245399408E+01
                       7.0706149719E+00  6.9962421558E+00 -2.6563776387E-02
                       8.6074791075E+00  8.6937630693E+00  1.7862097154E+00
                       6.9047773930E+00  6.9644870662E+00  3.4867309820E+00
                       8.6991092259E+00  8.6763599430E+00  5.2843192324E+00
                       6.9924215856E+00  6.9204257193E+00  6.8217078677E+00
                       8.6544257249E+00  8.7407343435E+00  8.7019755262E+00
                       6.9129329350E+00  6.9954894866E+00  1.0464022033E+01
                       8.7263673203E+00  8.6391770243E+00  1.2216394729E+01
                       6.9948508807E+00  1.0410297663E+01 -2.2869109642E-02
                       8.7167565276E+00  1.2206464310E+01  1.6916639806E+00
                       6.9450083532E+00  1.0478385984E+01  3.3922652572E+00
                       8.6623917715E+00  1.2227450807E+01  5.2453884144E+00
                       6.9302711878E+00  1.0456618888E+01  7.0293007896E+00
                       8.6950481219E+00  1.2175129587E+01  8.7394053147E+00
                       6.9432554825E+00  1.0417234444E+01  1.0404984962E+01
                       8.7371362469E+00  1.2172920603E+01  1.2213042037E+01
                       1.0347762258E+01 -8.1461454866E-03  6.3773247086E-02
                       1.2195778102E+01  1.6699396178E+00  1.7844008500E+00
                       1.0378290886E+01  7.2096036618E-02  3.4319044915E+00
                       1.2106930875E+01  1.6604862255E+00  5.2045683624E+00
                       1.0420381716E+01  2.0771381506E-02  6.9547934547E+00
                       1.2147138667E+01  1.7651494306E+00  8.6660908656E+00
                       1.0493955639E+01 -8.9971281264E-03  1.0492276684E+01
                       1.2113965339E+01  1.7545314325E+00  1.2329093367E+01
                       1.0366157150E+01  3.4800475162E+00  4.3003406710E-02
                       1.2165223147E+01  5.1964577504E+00  1.7503583314E+00
                       1.0426118006E+01  3.5049631118E+00  3.5293567611E+00
                       1.2160900231E+01  5.3070400417E+00  5.1884316484E+00
                       1.0431156862E+01  3.4863510442E+00  6.9307103574E+00
                       1.2224965536E+01  5.1646524980E+00  8.7065009714E+00
                       1.0455985122E+01  3.5275053076E+00  1.0458815349E+01
                       1.2249918490E+01  5.2963475981E+00  1.2189965044E+01
                       1.0531403252E+01  6.9549356462E+00  3.3292069278E-03
                       1.2197949589E+01  8.7528532580E+00  1.7502488535E+00
                       1.0506574363E+01  6.9279399568E+00  3.5057618984E+00
                       1.2226778285E+01  8.7253164791E+00  5.2549384750E+00
                       1.0391714883E+01  6.9221375280E+00  7.0713066998E+00
                       1.2210069140E+01  8.7249429923E+00  8.7050513396E+00
                       1.0400545860E+01  6.9231323088E+00  1.0347764877E+01
                       1.2171023492E+01  8.7325820993E+00  1.2133547766E+01
                       1.0369457618E+01  1.0500818775E+01  9.2297653261E-02
                       1.2201103592E+01  1.2224244621E+01  1.7239874945E+00
                       1.0476839010E+01  1.0536559299E+01  3.5914777417E+00
                       1.2147018607E+01  1.2163018644E+01  5.2503798509E+00
                       1.0464959385E+01  1.0430626640E+01  6.8836239044E+00
                       1.2158120760E+01  1.2196000592E+01  8.6873976954E+00
                       1.0390974598E+01  1.0443072958E+01  1.0470294914E+01
                       1.2227360577E+01  1.2149769387E+01  1.2190440671E+01
            xcart      7.4126375307E-02  1.2602728291E-01 -6.9460528922E-02
                       3.2733165401E+00  3.2951491204E+00  3.2038172073E+00
                       9.0310912915E-02  3.6166666061E-02  6.6250888416E+00
                       3.2857655330E+00  3.1033191209E+00  9.8412152724E+00
                       2.2705617713E-01 -2.4398928759E-02  1.3197613609E+01
                       3.3637496679E+00  3.1489551184E+00  1.6403176413E+01
                       3.8734183559E-02 -2.7512522657E-02  1.9775192271E+01
                       3.4261995243E+00  3.4053809026E+00  2.3176204764E+01
                       2.2560925102E-02  6.6334600238E+00  8.7129888689E-02
                       3.2987209548E+00  9.8204416874E+00  3.2429599097E+00
                       1.5960236145E-01  6.5892097885E+00  6.5556351658E+00
                       3.3634870456E+00  9.7176755528E+00  9.8803284057E+00
                      -3.8682494593E-02  6.5318027690E+00  1.3160501333E+01
                       3.3215680975E+00  9.8849069124E+00  1.6558651816E+01
                       1.6293525767E-01  6.3787895066E+00  1.9829920291E+01
                       3.3136532791E+00  9.9347506380E+00  2.3132831799E+01
                       2.5617497707E-02  1.3204868462E+01 -7.5348104538E-02
                       3.3685276127E+00  1.6492316668E+01  3.1283739883E+00
                      -5.5430916093E-02  1.3105014210E+01  6.7245769631E+00
                       3.2462288053E+00  1.6355558256E+01  1.0034949048E+01
                       7.4730991892E-03  1.3186941328E+01  1.3132967240E+01
                       3.3408576604E+00  1.6367596366E+01  1.6419713448E+01
                       1.7398483229E-01  1.3363616035E+01  1.9666456901E+01
                       3.5275578689E+00  1.6399897305E+01  2.3137208448E+01
                       4.8222013065E-02  1.9657107550E+01 -6.8507284269E-02
                       3.1710342299E+00  2.3022931194E+01  3.1467448965E+00
                       5.7539667550E-03  1.9885883055E+01  6.6720903267E+00
                       3.3406623684E+00  2.3190548899E+01  9.7387965114E+00
                      -3.2595819255E-01  1.9641875831E+01  1.3084849835E+01
                       3.3157798543E+00  2.3110778289E+01  1.6424103857E+01
                       7.5405656330E-02  1.9849123060E+01  1.9786718697E+01
                       3.1786103347E+00  2.3009679765E+01  2.3152491938E+01
                       6.5052638609E+00  6.3607986696E-03  8.9879166734E-03
                       9.9376142928E+00  3.2785479463E+00  3.2181851147E+00
                       6.5513132462E+00  1.7849535170E-01  6.6433222194E+00
                       9.7640678386E+00  3.1973592683E+00  9.8271236465E+00
                       6.5939294321E+00  2.4015572009E-01  1.3062029534E+01
                       9.9145848876E+00  3.4043780830E+00  1.6539499087E+01
                       6.5746258002E+00  6.7746228285E-02  1.9610372048E+01
                       9.8005464450E+00  3.2123986707E+00  2.3029597077E+01
                       6.4607361174E+00  6.6318564274E+00 -9.9510629736E-03
                       9.9390082670E+00  9.8979623488E+00  3.0477488072E+00
                       6.7669621175E+00  6.6876094324E+00  6.5756709648E+00
                       9.7914602080E+00  9.9614800774E+00  9.9449723014E+00
                       6.6018320009E+00  6.5158762910E+00  1.3033924601E+01
                       9.7318424051E+00  9.9904790159E+00  1.6424651949E+01
                       6.5267545115E+00  6.4856057777E+00  1.9790606942E+01
                       9.8882598687E+00  1.0011397476E+01  2.2928947690E+01
                       6.5509698747E+00  1.3142035768E+01  1.1760092219E-01
                       9.7379147582E+00  1.6446599660E+01  3.3935075224E+00
                       6.6548435361E+00  1.3148342897E+01  6.5797617621E+00
                       9.6934850490E+00  1.6398333730E+01  9.7995830156E+00
                       6.6347031101E+00  1.3055936019E+01  1.3324168744E+01
                       9.9430513715E+00  1.6334985497E+01  1.6638380158E+01
                       6.5096609110E+00  1.3278639088E+01  1.9700822580E+01
                       9.9072897350E+00  1.6411264761E+01  2.2808721763E+01
                       6.5494035313E+00  1.9602872191E+01  1.1571119211E-01
                       1.0050479273E+01  2.2900071402E+01  3.1746673381E+00
                       6.6346064227E+00  1.9817551012E+01  6.6351894946E+00
                       9.9797798234E+00  2.3083949818E+01  9.8539170109E+00
                       6.4058940691E+00  1.9856005673E+01  1.3112529184E+01
                       1.0016971690E+01  2.3200148676E+01  1.6417429694E+01
                       6.4275611946E+00  1.9859043373E+01  1.9643430782E+01
                       9.9085557007E+00  2.3140561907E+01  2.2843632310E+01
                       1.3171391872E+01  7.0170949714E-02 -9.4250795318E-02
                       1.6206939268E+01  3.2788065954E+00  3.4728237625E+00
                       1.3232108986E+01 -2.1677434957E-01  6.5278518781E+00
                       1.6261847220E+01  3.1216579151E+00  9.7981333420E+00
                       1.3200822686E+01  7.0335618710E-02  1.3309500067E+01
                       1.6367599444E+01  3.4631290500E+00  1.6441264570E+01
                       1.3135234803E+01  1.5611599672E-01  1.9787515278E+01
                       1.6446569871E+01  3.1712607283E+00  2.3065844065E+01
                       1.3247147556E+01  6.4012665018E+00  9.2689731217E-02
                       1.6434835974E+01  9.8127141466E+00  3.3223473132E+00
                       1.3096108291E+01  6.7958451203E+00  6.5291334779E+00
                       1.6392933070E+01  9.8048152938E+00  9.9227386911E+00
                       1.3288176650E+01  6.4586794492E+00  1.3215916091E+01
                       1.6375757955E+01  9.9826076116E+00  1.6316663007E+01
                       1.3063828077E+01  6.4766614223E+00  1.9753317626E+01
                       1.6593408212E+01  9.7522259004E+00  2.3140451269E+01
                       1.3361525888E+01  1.3220981634E+01 -5.0198262427E-02
                       1.6265778208E+01  1.6428831265E+01  3.3754471779E+00
                       1.3048138281E+01  1.3160973211E+01  6.5889666550E+00
                       1.6438934037E+01  1.6395944123E+01  9.9859161480E+00
                       1.3213761802E+01  1.3077709333E+01  1.2891159629E+01
                       1.6354494457E+01  1.6517594109E+01  1.6444350560E+01
                       1.3063550022E+01  1.3219559295E+01  1.9774135891E+01
                       1.6490444370E+01  1.6325678590E+01  2.3085640369E+01
                       1.3218352505E+01  1.9672611545E+01 -4.3216354125E-02
                       1.6472282604E+01  2.3066874597E+01  3.1967816321E+00
                       1.3124163778E+01  1.9801279825E+01  6.4104523062E+00
                       1.6369548104E+01  2.3106533329E+01  9.9123475637E+00
                       1.3096314572E+01  1.9760145974E+01  1.3283453398E+01
                       1.6431259663E+01  2.3007660552E+01  1.6515082609E+01
                       1.3120851333E+01  1.9685720160E+01  1.9662571995E+01
                       1.6510794692E+01  2.3003486177E+01  2.3079304699E+01
                       1.9554436756E+01 -1.5393984008E-02  1.2051397160E-01
                       2.3046680590E+01  3.1557285361E+00  3.3720289177E+00
                       1.9612127502E+01  1.3624176447E-01  6.4853596032E+00
                       2.2878783663E+01  3.1378642136E+00  9.8352088449E+00
                       1.9691667643E+01  3.9252222448E-02  1.3142654940E+01
                       2.2954765378E+01  3.3356490075E+00  1.6376538379E+01
                       1.9830702208E+01 -1.7002108141E-02  1.9827529444E+01
                       2.2892076875E+01  3.3155838989E+00  2.3298609931E+01
                       1.9589198064E+01  6.5763367351E+00  8.1264661463E-02
                       2.2988940094E+01  9.8198820093E+00  3.3076978807E+00
                       1.9702507660E+01  6.6234203872E+00  6.6695177036E+00
                       2.2980770965E+01  1.0028852255E+01  9.8047148747E+00
                       1.9712029718E+01  6.5882486767E+00  1.3097144482E+01
                       2.3101836848E+01  9.7597787927E+00  1.6452902412E+01
                       1.9758948331E+01  6.6660189636E+00  1.9764296683E+01
                       2.3148991095E+01  1.0008646465E+01  2.3035695502E+01
                       1.9901467942E+01  1.3142923643E+01  6.2912893333E-03
                       2.3050784106E+01  1.6540495539E+01  3.3074909975E+00
                       1.9854548140E+01  1.3091909183E+01  6.6249298751E+00
                       2.3105262446E+01  1.6488458568E+01  9.9303945630E+00
                       1.9637495180E+01  1.3080944182E+01  1.3362833064E+01
                       2.3073686739E+01  1.6487752780E+01  1.6450163004E+01
                       1.9654183308E+01  1.3082824045E+01  1.9554441705E+01
                       2.2999901156E+01  1.6502188601E+01  2.2929082299E+01
                       1.9595435044E+01  1.9843671656E+01  1.7441728737E-01
                       2.3056744307E+01  2.3100474515E+01  3.2578642212E+00
                       1.9798356467E+01  1.9911211458E+01  6.7869093442E+00
                       2.2954538498E+01  2.2984774187E+01  9.9217800118E+00
                       1.9775907229E+01  1.9711027745E+01  1.3008163981E+01
                       2.2975518528E+01  2.3047101036E+01  1.6416802452E+01
                       1.9636096243E+01  1.9734547877E+01  1.9785989918E+01
                       2.3106362818E+01  2.2959736719E+01  2.3036594308E+01
             xred      2.7713354502E-03  4.7117355379E-03 -2.5968951726E-03
                       1.2237827804E-01  1.2319452467E-01  1.1977993212E-01
                       3.3764207877E-03  1.3521498031E-03  2.4768975269E-01
                       1.2284370395E-01  1.1602264724E-01  3.6792988521E-01
                       8.4888655389E-03 -9.1219374937E-04  4.9341431172E-01
                       1.2575926803E-01  1.1772882344E-01  6.1325950583E-01
                       1.4481406327E-03 -1.0286005359E-03  7.3932781885E-01
                       1.2809405778E-01  1.2731571965E-01  8.6648021839E-01
                       8.4347698464E-04  2.4800272299E-01  3.2574930084E-03
                       1.2332806352E-01  3.6715323085E-01  1.2124334590E-01
                       5.9669946143E-03  2.4634835577E-01  2.4509311374E-01
                       1.2574944947E-01  3.6331115129E-01  3.6939219350E-01
                      -1.4462081563E-03  2.4420210071E-01  4.9202680876E-01
                       1.2418224122E-01  3.6956336844E-01  6.1907220738E-01
                       6.0916003756E-03  2.3848145031E-01  7.4137391514E-01
                       1.2388633282E-01  3.7142685742E-01  8.6485864934E-01
                       9.5775193713E-04  4.9368554624E-01 -2.8170117903E-03
                       1.2593789929E-01  6.1659215966E-01  1.1695936432E-01
                      -2.0723752129E-03  4.8995233216E-01  2.5140927839E-01
                       1.2136555889E-01  6.1147922338E-01  3.7517293843E-01
                       2.7939400275E-04  4.9301531110E-01  4.9099740177E-01
                       1.2490341299E-01  6.1192928776E-01  6.1387776985E-01
                       6.5047067464E-03  4.9962058319E-01  7.3526256970E-01
                       1.3188350482E-01  6.1313691104E-01  8.6502227753E-01
                       1.8028586146E-03  7.3491302896E-01 -2.5612565663E-03
                       1.1855428704E-01  8.6074983596E-01  1.1764619069E-01
                       2.1512143257E-04  7.4346617438E-01  2.4944697988E-01
                       1.2489611168E-01  8.6701649728E-01  3.6410079278E-01
                      -1.2186478707E-02  7.3434356629E-01  4.8919845410E-01
                       1.2396583831E-01  8.6403414290E-01  6.1404191246E-01
                       2.8191634579E-03  7.4209184200E-01  7.3975875311E-01
                       1.1883753207E-01  8.6025440968E-01  8.6559367571E-01
                       2.4320990034E-01  2.3780883352E-04  3.3602792525E-04
                       3.7153391983E-01  1.2257386269E-01  1.2031709978E-01
[...]
- vtorho(bef. vtowfk)             818.008   0.0        58.201   0.0           6000                  14.05       0.44
- vtowfk                      4339849.135  92.6    187705.961  90.5           6000                  23.12       0.72
- vtorho(MPI)                    6705.573   0.1       453.548   0.2           6000                  14.78       0.46
- vtorho(mkrho 1)               50355.122   1.1      1581.915   0.8           6000                  31.83       0.99
- vtorho(mkrho 2)               50487.256   1.1      1584.596   0.8           6000                  31.86       1.00

- subtotal                    4466823.667  95.3    192141.443  92.7                                 23.25       0.73

 Partitioning of vtowfk
- vtowfk                      4339849.135  92.6    187705.961  90.5           6000                  23.12       0.72
 
- vtowfk(2)                   4170970.961  89.0    180481.778  87.0           -120                  23.11       0.72
- prep_nonlop%vtowfk           156600.878   3.3      6830.131   3.3          12000                  22.93       0.72
- vtowfk(3)                     12274.916   0.3       393.975   0.2           -120                  31.16       0.97

- subtotal                    4339849.135  92.6    187705.961  90.5                                 23.12       0.72

 Partitioning of getghc
- getghc                     29087142.060 620.8   1640307.668 791.0         997996                  17.73       0.55
 
- fourwf%getghc               1940230.064  41.4     61269.136  29.5         998392                  31.67       0.99
- nonlop%getghc              26910939.846 574.4   1567592.255 755.9         998211                  17.17       0.54
- getghc-other                 235972.150   5.0     11446.278   5.5           -120                  20.62       0.64

- subtotal                   29087142.060 620.8   1640307.668 791.0                                 17.73       0.55

 Partitioning of fourwf (upwards partitioning)
- fourwf                      1950197.944  41.6     61586.682  29.7        1190392                  31.67       0.99
 
- fourwf%getghc               1940230.064  41.4     61269.136  29.5         998392                  31.67       0.99
- fourwf%prep_four               9967.879   0.2       317.547   0.2         192000                  31.39       0.98

- subtotal                    1950197.944  41.6     61586.682  29.7                                 31.67       0.99

 Partitioning of prep_getghc
- prep_getghc                 2050810.107  43.8    113762.405  54.9          62400                  18.03       0.56
 
- prep_getghc(before if)        36786.202   0.8      1155.109   0.6          62400                  31.85       1.00
- prep_getghc(bef. getghc)       8726.562   0.2       275.095   0.1          62400                  31.72       0.99
- prep_getghc(aft. getghc)      32039.380   0.7      1891.327   0.9          62400                  16.94       0.53
- prep_getghc(alltoall)        144779.854   3.1      7331.396   3.5         124800                  19.75       0.62
- prep_getghc(getghc - 2 )    1828411.085  39.0    103105.533  49.7          62400                  17.73       0.55

- subtotal                    2050810.107  43.8    113762.405  54.9                                 18.03       0.56

 Partitioning of prep_fourwf
- prep_fourwf                   21953.950   0.5       692.286   0.3          12000                  31.71       0.99
 
- fourwf%prep_four               9967.879   0.2       317.547   0.2         192000                  31.39       0.98
- alltoall%prep_fo               9529.484   0.2       299.454   0.1          12000                  31.82       0.99

- subtotal                      19497.363   0.4       617.001   0.3                                 31.60       0.99

 Partitioning of prep_nonlop
- prep_nonlop                  177293.806   3.8      8098.280   3.9          12240                  21.89       0.68
 
- nonlop%prep_nonl%vtowfk      133137.431   2.8      6092.973   2.9          12000                  21.85       0.68
- nonlop%prep_nonl%forstrn      20235.312   0.4      1225.069   0.6            240                  16.52       0.52
- prep_nonlop(alltoall)         21834.048   0.5       701.696   0.3          12240                  31.12       0.97
- (other)                        2087.014   0.0        78.542   0.0             -1                  26.57       0.83

- subtotal                     177293.806   3.8      8098.280   3.9                                 21.89       0.68

 Partitioning of mkrho (upwards partitioning)
- mkrho                         50352.336   1.1      1581.744   0.8           6000                  31.83       0.99
 
- mkrho%vtorho                  50352.336   1.1      1581.744   0.8           6000                  31.83       0.99

- subtotal                      50352.336   1.1      1581.744   0.8                                 31.83       0.99

 Partitioning of inwffil
- inwffil                          37.546   0.0        13.392   0.0            120                   2.80       0.09
 

- subtotal                         37.534   0.0        13.390   0.0                                  2.80       0.09

 Partitioning of newkpt
- newkpt                           37.460   0.0        13.256   0.0            120                   2.83       0.09
 

- subtotal                         37.340   0.0        13.251   0.0                                  2.82       0.09

 Partitioning of newrho
- newrho                        38765.020   0.8      1218.866   0.6           5880                  31.80       0.99
 
- fourdp%newrho                 13764.922   0.3       431.735   0.2          11760                  31.88       1.00

- subtotal                      13764.922   0.3       431.735   0.2                                 31.88       1.00

 Partitioning of  fourdp (upwards partitioning)
- fourdp                        41923.426   0.9      1324.645   0.6          48720                  31.65       0.99
 
- fourdp%(other)                28158.504   0.6       892.910   0.4          36960                  31.54       0.99
- fourdp%newrho                 13764.922   0.3       431.735   0.2          11760                  31.88       1.00

- subtotal                      41923.426   0.9      1324.645   0.6                                 31.65       0.99

 Partitioning of afterscfloop
- afterscfloop                  27403.504   0.6      2234.647   1.1            120                  12.26       0.38
 
- afterscfloop(forstr)          27377.727   0.6      2208.931   1.1            120                  12.39       0.39

- subtotal                      27403.434   0.6      2234.645   1.1                                 12.26       0.38

 Partitioning of forstr
- forstr                        27251.266   0.6      2204.966   1.1            120                  12.36       0.39
 
- forstr(forstrnps)             23426.078   0.5      1416.528   0.7            120                  16.54       0.52
- forstr(forces)                 2699.160   0.1       533.072   0.3            120                   5.06       0.16
- forstr(stress)                  965.812   0.0       250.268   0.1            120                   3.86       0.12

- subtotal                      27251.211   0.6      2204.965   1.1                                 12.36       0.39

 Partitioning of forstrnps
- forstrnps                     23426.023   0.5      1416.526   0.7            120                  16.54       0.52
 
- forstrnps(bef.loop band)       1546.828   0.0       106.360   0.1            120                  14.54       0.45
- forstrnps(nonlop+prep_ba      20709.961   0.4      1268.248   0.6            240                  16.33       0.51

- subtotal                      23426.023   0.5      1416.526   0.7                                 16.54       0.52

 Partitioning of outscfcv
- outscfcv                         11.113   0.0        11.143   0.0            120                   1.00       0.03
 

- subtotal                         11.113   0.0        11.138   0.0                                  1.00       0.03

 Partitioning of lobpcgwf2 core engine
- lobpcgwf2                   4170038.309  89.0    180452.248  87.0           6240                  23.11       0.72
 
- lobpcg_init                   23625.470   0.5       741.058   0.4           6240                  31.88       1.00
- lobpcg_run                  4143888.907  88.4    179631.951  86.6           6240                  23.07       0.72
- lobpcg_orthoWrtPrev           39617.236   0.8      1243.882   0.6          31200                  31.85       1.00
- lobpcg_Bortho                668946.454  14.3     21160.851  10.2          68640                  31.61       0.99
- lobpcg_RayleighRitz         1282032.903  27.4     40255.352  19.4          68640                  31.85       1.00
- lobpcg_maxResidu              19689.659   0.4       620.606   0.3         112320                  31.73       0.99
- lobpcg_run@getAX_BX         2050839.173  43.8    113763.301  54.9          62400                  18.03       0.56
- lobpcg_RayleighRitz@hegv     447424.835   9.5     14042.003   6.8          68640                  31.86       1.00

- subtotal                    8677145.706 185.2    371495.373 179.1                                 23.36       0.73

 Partitioning of low-level xgBlock type
- xgBlock_potrf                 17990.723   0.4       565.637   0.3          68640                  31.81       0.99
 
- xgBlock_trsm                 326230.985   7.0     10253.641   4.9         205920                  31.82       0.99
- xgBlock_gemm                1136782.694  24.3     35741.476  17.2         780000                  31.81       0.99
- xgBlock_heevd                 24702.752   0.5       777.487   0.4          18720                  31.77       0.99
- xgBlock_hegvd                422236.057   9.0     13263.784   6.4          49920                  31.83       0.99
- xgBlock_copy                  21055.376   0.4       675.808   0.3         418080                  31.16       0.97
- xgBlock_cshift                 4765.254   0.1       146.735   0.1          49920                  32.48       1.01

- subtotal                    1935773.119  41.3     60858.931  29.3                                 31.81       0.99

 Partitioning of nonlop_ylm
- nonlop_ylm                 29484919.113 629.3   1691697.705 815.7        1194025                  17.43       0.54
 
- nlo_ylm%opernla             8899885.370 190.0    494159.681 238.3       16719035                  18.01       0.56
- nlo_ylm%opernlb            18257030.531 389.7   1071069.926 516.5       13976282                  17.05       0.53
- nlo_ylm%opernlc               14098.464   0.3      1071.056   0.5       14030042                  13.16       0.41
- nlo_ylm(other)              2313893.286  49.4    125396.570  60.5        1194025                  18.45       0.58

- subtotal                   29484919.113 629.3   1691697.705 815.7                                 17.43       0.54
-
-Synchronisation (=leave_test) and MPI calls 
- communic.MPI                  94393.837   2.0      3363.734   1.6          79920                  28.06       0.88
-
- forstrnps:synchr                  2.328   0.0         2.320   0.0            240                   1.00       0.03
- mkrho :MPIrhor                 7627.932   0.2       239.340   0.1           6000                  31.87       1.00
- subtotal                       7630.260   0.2       241.659   0.1                                 31.57       0.99

 Additional information
- timana(1)                         1.082   0.0         0.079   0.0            120                  13.76       0.43
- total timab                   16420.012   0.4       515.414   0.2       52315153                  31.86       1.00
- fourwf                      1950197.944  41.6     61586.682  29.7        1190392                  31.67       0.99
- newocc                          370.822   0.0        26.261   0.0           6000                  14.12       0.44
- nonlop(total)              27064312.589 577.6   1574910.296 759.4        1010451                  17.18       0.54

 Additional information about PAW segments
- forces:pawatm2ff               1012.703   0.0       283.948   0.1            120                   3.57       0.11
- stress:pawatm2ff                920.332   0.0       204.684   0.1            120                   4.50       0.14
- setvtr:pawatm2ff                401.808   0.0       189.259   0.1            120                   2.12       0.07
- pawinit                         307.535   0.0         9.688   0.0            240                  31.74       0.99
- vtowfk:rhoij                 156709.208   3.3      6830.216   3.3          12000                  22.94       0.72
- vtorho:pawmkrhoij              3103.528   0.1        97.347   0.0           6000                  31.88       1.00
- pawmkrho                      41806.693   0.9      1311.794   0.6           6000                  31.87       1.00
- scfcv_core:mknhat             28473.763   0.6       907.211   0.4           6000                  31.39       0.98
- nhatgrid                        167.729   0.0         5.261   0.0            240                  31.88       1.00
- pawdenpot                     32125.473   0.7      1017.407   0.5           6000                  31.58       0.99
- pawdij/symdij                   945.572   0.0        43.866   0.0           6000                  21.56       0.67


 Detailed analysis of some time consuming routines 
                                  tcpu    ncalls  tcpu/ncalls    ndata tcpu/ncalls/ndata
                                 (sec)                (msec)              (microsec)
- fourwf%(pot)             1940230.064    998392    1943.355   3906250       0.497
- fourwf%(den)                   0.000         0
- fourdp                     41923.426     48720     860.497   1953125       0.441
- nonlop(apply)           26910939.846    998211   26959.170    516992      52.146
- nonlop(forces)                 0.000         0
- nonlop(forstr)                 0.000         0
- projbd                         0.000         0
- xc:pot/=fourdp             51437.691      6120    8404.851   1953125       4.303

================================================================================

 Suggested references for the acknowledgment of ABINIT usage.

 The users of ABINIT have little formal obligations with respect to the ABINIT group
 (those specified in the GNU General Public License, http://www.gnu.org/copyleft/gpl.txt).
 However, it is common practice in the scientific literature,
 to acknowledge the efforts of people that have made the research possible.
 In this spirit, please find below suggested citations of work written by ABINIT developers,
 corresponding to implementations inside of ABINIT that you have used in the present run.
 Note also that it will be of great value to readers of publications presenting these results,
 to read papers enabling them to understand the theoretical formalism and details
 of the ABINIT implementation.
 For information on why they are suggested, see also https://docs.abinit.org/theory/acknowledgments.
-
- [1] Implementation of the Projector Augmented-Wave Method in the ABINIT code.
- M. Torrent, F. Jollet, F. Bottin, G. Zerah, and X. Gonze Comput. Mat. Science 42, 337, (2008).
- Comment: PAW calculations. Strong suggestion to cite this paper.
- DOI and bibtex: see https://docs.abinit.org/theory/bibliography/#torrent2008
-
- [2] Libxc: A library of exchange and correlation functionals for density functional theory.
- M.A.L. Marques, M.J.T. Oliveira, T. Burnus, Computer Physics Communications 183, 2227 (2012).
- Comment: to be cited when LibXC is used (negative value of ixc)
- Strong suggestion to cite this paper.
- DOI and bibtex: see https://docs.abinit.org/theory/bibliography/#marques2012
-
- [3] Large scale ab initio calculations based on three levels of parallelization
- F. Bottin, S. Leroux, A. Knyazev, G. Zerah, Comput. Mat. Science 42, 329, (2008).
- Comment: in case LOBPCG algorithm is used (wfoptalg=4/14/114).
- Strong suggestion to cite this paper in your publications.
- This paper is also available at http://www.arxiv.org/abs/0707.3405
- DOI and bibtex: see https://docs.abinit.org/theory/bibliography/#bottin2008
-
- [4] The Abinit project: Impact, environment and recent developments.
- Computer Phys. Comm. 248, 107042 (2020).
- X.Gonze, B. Amadon, G. Antonius, F.Arnardi, L.Baguet, J.-M.Beuken,
- J.Bieder, F.Bottin, J.Bouchet, E.Bousquet, N.Brouwer, F.Bruneval,
- G.Brunin, T.Cavignac, J.-B. Charraud, Wei Chen, M.Cote, S.Cottenier,
- J.Denier, G.Geneste, Ph.Ghosez, M.Giantomassi, Y.Gillet, O.Gingras,
- D.R.Hamann, G.Hautier, Xu He, N.Helbig, N.Holzwarth, Y.Jia, F.Jollet,
- W.Lafargue-Dit-Hauret, K.Lejaeghere, M.A.L.Marques, A.Martin, C.Martins,
- H.P.C. Miranda, F.Naccarato, K. Persson, G.Petretto, V.Planes, Y.Pouillon,
- S.Prokhorenko, F.Ricci, G.-M.Rignanese, A.H.Romero, M.M.Schmitt, M.Torrent,
- M.J.van Setten, B.Van Troeye, M.J.Verstraete, G.Zerah and J.W.Zwanzig
- Comment: the fifth generic paper describing the ABINIT project.
- Note that a version of this paper, that is not formatted for Computer Phys. Comm. 
- is available at https://www.abinit.org/sites/default/files/ABINIT20.pdf .
- The licence allows the authors to put it on the Web.
- DOI and bibtex: see https://docs.abinit.org/theory/bibliography/#gonze2020
-
- [5] ABINIT: Overview, and focus on selected capabilities
- J. Chem. Phys. 152, 124102 (2020).
- A. Romero, D.C. Allan, B. Amadon, G. Antonius, T. Applencourt, L.Baguet,
- J.Bieder, F.Bottin, J.Bouchet, E.Bousquet, F.Bruneval,
- G.Brunin, D.Caliste, M.Cote,
- J.Denier, C. Dreyer, Ph.Ghosez, M.Giantomassi, Y.Gillet, O.Gingras,
- D.R.Hamann, G.Hautier, F.Jollet, G. Jomard,
- A.Martin, 
- H.P.C. Miranda, F.Naccarato, G.Petretto, N.A. Pike, V.Planes,
- S.Prokhorenko, T. Rangel, F.Ricci, G.-M.Rignanese, M.Royo, M.Stengel, M.Torrent,
- M.J.van Setten, B.Van Troeye, M.J.Verstraete, J.Wiktor, J.W.Zwanziger, and X.Gonze.
- Comment: a global overview of ABINIT, with focus on selected capabilities .
- Note that a version of this paper, that is not formatted for J. Chem. Phys 
- is available at https://www.abinit.org/sites/default/files/ABINIT20_JPC.pdf .
- The licence allows the authors to put it on the Web.
- DOI and bibtex: see https://docs.abinit.org/theory/bibliography/#romero2020
-
- [6] Recent developments in the ABINIT software package.
- Computer Phys. Comm. 205, 106 (2016).
- X.Gonze, F.Jollet, F.Abreu Araujo, D.Adams, B.Amadon, T.Applencourt,
- C.Audouze, J.-M.Beuken, J.Bieder, A.Bokhanchuk, E.Bousquet, F.Bruneval
- D.Caliste, M.Cote, F.Dahm, F.Da Pieve, M.Delaveau, M.Di Gennaro,
- B.Dorado, C.Espejo, G.Geneste, L.Genovese, A.Gerossier, M.Giantomassi,
- Y.Gillet, D.R.Hamann, L.He, G.Jomard, J.Laflamme Janssen, S.Le Roux,
- A.Levitt, A.Lherbier, F.Liu, I.Lukacevic, A.Martin, C.Martins,
- M.J.T.Oliveira, S.Ponce, Y.Pouillon, T.Rangel, G.-M.Rignanese,
- A.H.Romero, B.Rousseau, O.Rubel, A.A.Shukri, M.Stankovski, M.Torrent,
- M.J.Van Setten, B.Van Troeye, M.J.Verstraete, D.Waroquier, J.Wiktor,
- B.Xu, A.Zhou, J.W.Zwanziger.
- Comment: the fourth generic paper describing the ABINIT project.
- Note that a version of this paper, that is not formatted for Computer Phys. Comm. 
- is available at https://www.abinit.org/sites/default/files/ABINIT16.pdf .
- The licence allows the authors to put it on the Web.
- DOI and bibtex: see https://docs.abinit.org/theory/bibliography/#gonze2016
-
- Proc.   0 individual time (sec): cpu=      39077.8  wall=       1728.3
 
================================================================================
 
 Calculation completed.
.Delivered   1 WARNINGs and   0 COMMENTs to log file.
+Overall time at end (sec) : cpu=    4685642.6  wall=     207392.8
