/Users/alois/Documents/Physique/Work/Develop/mlacs/otf_mlacs/tutorials/Mlacs/1_simple_langevin/MolecularDynamics/Trajectory/atoms.in (written by ASE) 

32 	 atoms 
1  atom types
0.0      8.0526976947896678  xlo xhi
0.0      8.0526976947896678  ylo yhi
0.0      8.0526976947896678  zlo zhi


Atoms 

     1   1               -0.102574    0.082029199999999997   -0.098670999999999995
     2   1    0.063830200000000004                 1.88611                 2.00719
     3   1      1.8959900000000001    0.017304300000000002                 2.03477
     4   1      2.0864799999999999      2.0542400000000001   -0.040343700000000003
     5   1   -0.069341299999999995                0.112914      4.0909700000000004
     6   1    0.097310400000000005      2.0110700000000001      5.8587499999999997
     7   1      2.0054500000000002    0.049131000000000001                 5.99756
     8   1      2.1107900000000002      2.0569000000000002      3.9218899999999999
     9   1    0.048489400000000002      4.0034000000000001               -0.116337
    10   1    0.080069100000000004      6.2540699999999996      1.9746900000000001
    11   1      1.9690000000000001      3.9084500000000002      2.0926499999999999
    12   1      2.0717099999999999      5.8311000000000002             -0.00156897
    13   1     0.20110800000000001      3.8740299999999999      4.0338700000000003
    14   1   -0.025062500000000001      5.9916499999999999      6.0052700000000003
    15   1      2.0433400000000002      4.0301900000000002      6.0239399999999996
    16   1                 1.97357      6.1283899999999996                 3.95811
    17   1      3.9749699999999999    0.086973300000000003     0.24774099999999999
    18   1      3.9851899999999998      2.1333099999999998      2.0877699999999999
    19   1      6.0067000000000004     0.25527499999999997                 2.08914
    20   1      6.0474800000000002      2.2966299999999999    0.040403599999999998
    21   1      4.0571599999999997   -0.033280499999999998      4.1533800000000003
    22   1      4.1384699999999999                 2.08588      6.0674099999999997
    23   1      6.0612399999999997               -0.107709      6.2772699999999997
    24   1      5.9372499999999997      2.0181399999999998      4.2082600000000001
    25   1      4.0081899999999999      3.9285299999999999               0.0154965
    26   1      4.2575700000000003      5.8609900000000001      1.9448399999999999
    27   1      6.2838099999999999      3.8495699999999999      2.0517799999999999
    28   1      5.8570900000000004      6.0596300000000003    0.024693099999999999
    29   1      3.9827900000000001                 4.28993      4.0971599999999997
    30   1                 3.94428      6.1137899999999998      6.0646000000000004
    31   1                 6.00176      4.1991300000000003      6.0376899999999996
    32   1      6.2059199999999999      5.8722500000000002      4.0497100000000001


Velocities 

     1     0.43504900000000007     -4.7674000000000012     -6.1538000000000004
     2      3.9918399999999998      2.9462299999999999      1.1791799999999999
     3      3.2975700000000003      3.1871600000000004     -1.6433300000000002
     4    -0.64911099999999999     0.25073000000000001      1.1494800000000001
     5      2.4589500000000002     -3.2472900000000005     0.52833900000000011
     6                -2.04183                -1.86565     -3.5865800000000001
     7                -3.80843     0.95892700000000008      2.9995799999999999
     8      1.5537399999999999     -4.9143400000000002      6.6132499999999999
     9      1.3723200000000002      1.1701999999999999     -6.6083700000000007
    10                 3.12127      3.5711400000000006      4.8108000000000004
    11                 1.13297     -1.5270800000000002    0.091681100000000015
    12                -1.62557     -5.3088400000000009     0.17768200000000001
    13     -1.1434900000000001     -4.9985500000000007     -1.1113000000000004
    14     -3.0526900000000001     -5.6722000000000001                  1.4131
    15     -5.9056900000000008      1.8460300000000001     -3.4523799999999998
    16    0.083475700000000014      2.6742400000000002     -4.8869200000000008
    17    -0.71223400000000003    -0.11593700000000001     0.92138399999999998
    18               -0.360155      2.8964400000000006      4.0988100000000003
    19      2.4915099999999999      1.5775100000000002                 1.94706
    20     0.40910400000000002     0.49854599999999999     -6.1713000000000005
    21     -8.0756899999999998     -5.3394000000000013     0.93051200000000001
    22      4.2805100000000005     -4.1593800000000005      1.1696000000000002
    23      1.4483000000000001      2.6394000000000002   -0.017860999999999998
    24     0.51288800000000012      3.6823100000000002      3.9366500000000006
    25     -1.0033200000000002    -0.65985900000000008      3.3500000000000001
    26     0.45357900000000001     0.47663100000000008      1.6797800000000001
    27     -3.3464700000000005      2.2467400000000004    -0.16379400000000002
    28      4.5387500000000003      6.5794300000000003     0.04927560000000001
    29     -3.5425900000000001      5.7950499999999998     -1.2317000000000002
    30    0.021205100000000005    -0.65163099999999996      1.6946000000000003
    31    -0.37492199999999998     0.88910200000000006     -1.1551300000000002
    32      4.0391599999999999    -0.65827500000000017                 -2.5583
