ITEM: TIMESTEP
500
ITEM: NUMBER OF ATOMS
32
ITEM: BOX BOUNDS pp pp pp
-9.6615040161349697e-03 8.0623591988058330e+00
-9.6615040161349697e-03 8.0623591988058330e+00
-9.6615040161349697e-03 8.0623591988058330e+00
ITEM: ATOMS id type xu yu zu vx vy vz fx fy fz element
2 1 -0.162728 2.18208 1.95749 -1.65806 3.36103 1.94559 -0.118467 -0.0680685 0.428477 Al
3 1 1.88655 -0.0731632 2.06279 0.444636 -5.37831 7.24278 1.18968 -0.0672061 -0.20177 Al
8 1 1.84276 1.94853 4.05605 1.15126 -1.47562 -0.431222 0.216468 -0.306789 0.434437 Al
11 1 1.99607 4.01635 2.10581 -0.0118092 -0.391921 0.599406 -0.726666 0.132597 -0.403984 Al
17 1 4.07972 -0.0965507 -0.0124288 0.596457 5.39107 -2.14796 -1.88822 -1.24485 0.674629 Al
18 1 3.86451 2.2 2.16614 -1.25498 0.835459 -4.23984 0.547653 -0.679918 0.1155 Al
25 1 4.03805 4.19028 0.180166 2.61729 -0.882555 -4.07243 0.844682 -0.0690162 -0.381267 Al
19 1 6.0321 0.0255136 2.17956 -3.61324 -4.3113 -1.03906 -1.07715 0.156786 -1.09694 Al
20 1 5.98232 1.79861 0.0151579 -3.08498 -1.72694 -1.66615 0.929291 -0.176894 -0.814482 Al
27 1 5.89649 4.21486 2.1011 -4.80335 -3.57991 3.44577 1.54061 0.598494 -0.566091 Al
10 1 0.0912418 5.94502 1.93988 -0.00254269 4.4161 0.328285 0.0596909 -0.0823721 1.07216 Al
16 1 2.10267 6.00112 4.07919 3.1935 2.77417 4.22726 -0.0876265 0.574793 -0.304636 Al
26 1 4.02781 6.10979 2.0012 1.43314 -0.215317 -1.71307 -0.370403 0.752357 0.106756 Al
28 1 6.10919 6.11912 -0.119982 2.01897 0.455941 -3.50701 0.0552746 0.0491581 -0.369761 Al
4 1 2.24816 2.10019 -0.132663 0.455728 -3.22545 -3.2796 -0.218745 0.716761 -0.20608 Al
6 1 -0.0609005 1.96018 6.138 -2.0692 -0.179917 -3.59408 0.246436 -0.666463 -0.627515 Al
7 1 2.02595 0.045401 6.2722 -3.60669 -2.33735 3.6601 -0.0684338 0.124729 -1.33772 Al
9 1 -0.0834179 3.94261 -0.0500271 -0.410055 -1.23456 -1.54695 0.0082078 0.0886407 0.48493 Al
13 1 0.006682 4.00091 4.15898 -2.45693 4.97516 1.12301 0.220454 0.771319 -0.478197 Al
1 1 0.139316 -0.0265385 0.1546 5.43383 2.20434 -1.81678 -0.520825 0.00404094 0.0206349 Al
5 1 0.00354978 -0.101128 4.01575 -0.778128 -0.830229 2.03404 -1.11819 0.728731 -0.144077 Al
22 1 4.16196 2.20258 6.01179 -4.46544 3.1198 2.39712 0.919823 -1.19624 -0.74198 Al
24 1 6.2548 2.08988 4.05452 3.13513 3.67134 0.886985 -0.349293 0.298862 -0.384765 Al
12 1 2.08999 5.95428 -0.0574499 0.133611 3.02963 -1.02847 -0.019266 0.328941 0.937716 Al
15 1 2.23702 4.03635 6.11598 -0.602851 0.521694 0.586416 -0.395152 0.285812 -0.349628 Al
29 1 4.12021 4.07166 4.04449 3.21945 0.799723 2.02301 -0.00950947 0.877739 0.405023 Al
30 1 4.04172 6.07987 5.96355 -2.75751 -0.997185 0.150232 0.190217 -0.686602 1.13847 Al
14 1 -0.0527158 6.23658 5.88909 0.570658 0.0476068 -4.31263 0.0236937 -1.96121 1.36625 Al
21 1 4.22702 0.0805968 4.0141 1.59794 -0.775012 -0.0120873 -0.0933136 -0.220581 0.174885 Al
23 1 6.11012 -0.124009 5.96182 1.22008 1.46832 3.15429 -0.797996 -0.127449 -0.130499 Al
31 1 6.0512 4.05817 5.95226 3.05961 -5.58866 -1.85034 -0.174901 0.256402 1.08552 Al
32 1 5.89261 6.01091 3.98096 1.29447 -3.94116 2.4534 1.04197 0.807492 0.094009 Al
