/Users/oliviernadeau/Software/otf_mlacs/examples/MolecularDynamics/restart_lmpstate/atoms.in (written by ASE) 

32 	 atoms 
1  atom types
0.0      7.2199999999999998  xlo xhi
0.0      7.2199999999999998  ylo yhi
0.0      7.2199999999999998  zlo zhi


Atoms 

     1   1                       0                       0                       0
     2   1                       0      1.8049999999999999      1.8049999999999999
     3   1      1.8049999999999999                       0      1.8049999999999999
     4   1      1.8049999999999999      1.8049999999999999                       0
     5   1                       0                       0      3.6099999999999999
     6   1                       0      1.8049999999999999                   5.415
     7   1      1.8049999999999999                       0                   5.415
     8   1      1.8049999999999999      1.8049999999999999      3.6099999999999999
     9   1                       0      3.6099999999999999                       0
    10   1                       0                   5.415      1.8049999999999999
    11   1      1.8049999999999999      3.6099999999999999      1.8049999999999999
    12   1      1.8049999999999999                   5.415                       0
    13   1                       0      3.6099999999999999      3.6099999999999999
    14   1                       0                   5.415                   5.415
    15   1      1.8049999999999999      3.6099999999999999                   5.415
    16   1      1.8049999999999999                   5.415      3.6099999999999999
    17   1      3.6099999999999999                       0                       0
    18   1      3.6099999999999999      1.8049999999999999      1.8049999999999999
    19   1                   5.415                       0      1.8049999999999999
    20   1                   5.415      1.8049999999999999                       0
    21   1      3.6099999999999999                       0      3.6099999999999999
    22   1      3.6099999999999999      1.8049999999999999                   5.415
    23   1                   5.415                       0                   5.415
    24   1                   5.415      1.8049999999999999      3.6099999999999999
    25   1      3.6099999999999999      3.6099999999999999                       0
    26   1      3.6099999999999999                   5.415      1.8049999999999999
    27   1                   5.415      3.6099999999999999      1.8049999999999999
    28   1                   5.415                   5.415                       0
    29   1      3.6099999999999999      3.6099999999999999      3.6099999999999999
    30   1      3.6099999999999999                   5.415                   5.415
    31   1                   5.415      3.6099999999999999                   5.415
    32   1                   5.415                   5.415      3.6099999999999999


Velocities 

     1      1.5519394522444634      2.5439884716887593     -1.9746977370368364
     2     0.49829916733727947     -1.3626057715604629     -1.6265021549870948
     3     -2.3235133747230687      2.0434535338804749     -2.5620198370336733
     4      2.3390261159817078     -1.1720111269834539     -1.6696719023429418
     5     -1.0855454768829833     0.56846593751013641     -2.4437972719558876
     6    -0.61098612405050612    -0.99123904935283635    -0.83249177384397099
     7    -0.16043206438123428     -1.4920575097632833     -2.7832556245005402
     8      3.0889425985196053     0.70601866492258258    -0.48241551997772142
     9     -4.1811724401618804      1.3575507105228544    -0.88322154347408077
    10   -0.024151703066998518     -1.5187817132267372     0.20152954559936873
    11    -0.42712693006396729      5.7623737861317208      1.1019401705999996
    12      4.1088536638053874      2.3352924568455906     -3.4935400224578483
    13     -1.1348488143525448     -2.7305534502862003     0.54915280399647748
    14      2.5274872448758292     0.73777326382269004      1.0502857416619411
    15      2.9914668415684162   -0.057167632804340708      -4.417311566459591
    16     -5.0132820640832367      2.9363823371101585    -0.26336173023573262
    17      2.7465161825153843      1.0935089564629683    -0.86541656231554009
    18      1.1077203680050403    -0.26433812419915792      1.4460190008361897
    19     -5.4867449190496123      0.2321681562252873     -1.8558128151225637
    20     -3.2111773179635628     -1.4400911102686804      2.2996984885445486
    21     -1.2648968493856745      4.1515583392818689      1.2268362755925868
    22    -0.44011430039583366       4.159168110413952     -2.0807420811543489
    23       1.206721360973199     -1.3227358199411055     -0.7559309626643016
    24     -1.7857755522160903      1.3708094714680901      1.9860494889263687
    25     -3.2272633251749738     0.17583868601257199      3.4434273168672451
    26     -0.5902322293275496       3.894555408371164      1.7343362183281408
    27     -2.9091355332901836     -3.4036888916184527      2.1532134939125691
    28     -1.4929206136843671     -2.5656630124358704     -1.9912441544655985
    29     0.50099188500540948     -2.3205434828199079     -2.2367665522258071
    30     0.45307624908820104     -3.3029350749300947      1.0878246237668396
    31    -0.71924725387377808     0.31468361279365481      2.9565725486650982
    32     0.34692694683198633     -2.2931437140471096     0.73544226164461379
