ITEM: TIMESTEP
100
ITEM: NUMBER OF ATOMS
32
ITEM: BOX BOUNDS pp pp pp
0.0000000000000000e+00 7.2199999999999998e+00
0.0000000000000000e+00 7.2199999999999998e+00
0.0000000000000000e+00 7.2199999999999998e+00
ITEM: ATOMS id type xu yu zu vx vy vz fx fy fz element
1 1 0.0501835 0.0335776 -0.0312235 3.27113 1.47098 -1.94898 0.00311562 -0.453235 1.91621 Cu
2 1 0.122226 1.70219 1.90798 -3.72177 -2.45369 0.242116 0.739123 0.873635 -0.176669 Cu
3 1 1.80512 -0.0731886 1.79837 -1.27775 0.357118 -2.15272 -1.01785 0.862244 -0.272598 Cu
4 1 1.81754 1.76333 0.0963132 -1.13714 -1.44484 3.50143 0.737077 0.60394 -0.0477521 Cu
17 1 3.49052 0.0159373 0.00621394 -2.09776 3.02035 0.600633 0.520413 -1.00919 -0.179737 Cu
18 1 3.6181 1.82872 1.7491 1.23047 -0.97119 0.528515 0.876227 2.02895 0.360407 Cu
19 1 5.45603 0.072471 1.78087 -0.691984 2.39651 -2.1692 0.079666 0.633116 -0.837139 Cu
20 1 5.50983 1.86724 0.076393 0.257024 -0.128187 2.18116 -0.0388722 -0.28789 -1.78295 Cu
9 1 0.0481908 3.60979 -0.0107771 -2.26919 0.948755 -1.2819 -0.668885 -0.564009 -0.223824 Cu
10 1 -0.0573484 5.44012 1.72418 0.204725 -1.42567 1.25866 1.74365 -0.0592069 0.63773 Cu
11 1 1.77007 3.51916 1.73593 1.45202 -3.38407 -1.87154 -0.59355 1.56246 0.708665 Cu
12 1 1.77064 5.38872 0.0186509 0.213812 3.75503 3.00257 -1.74396 0.027814 -0.225816 Cu
25 1 3.60094 3.59354 -0.0951948 1.84057 0.589527 -5.87884 -1.34658 -0.619519 1.45835 Cu
26 1 3.61773 5.41988 1.68219 -1.04789 -2.05409 -0.889517 0.248319 -0.82501 0.164905 Cu
27 1 5.48014 3.57367 1.80639 -1.34282 -1.18818 -0.897145 -0.294973 -1.10507 0.66027 Cu
28 1 5.34837 5.43233 -0.0305199 1.06205 2.95705 -4.92747 0.138917 -0.742666 -1.458 Cu
5 1 0.0531742 -0.0210385 3.73682 -0.183511 1.03172 2.10831 -0.386409 0.366451 -1.01809 Cu
6 1 -0.0256044 1.83293 5.40758 -0.514083 -0.937537 0.831374 -0.167368 -0.0896358 0.167829 Cu
7 1 1.73488 0.0525918 5.4057 -2.20486 -2.80648 1.5995 -0.49527 1.15424 -0.09235 Cu
8 1 1.7813 1.73782 3.61704 0.454324 0.0865696 -0.332063 1.16063 0.646933 0.184517 Cu
21 1 3.60508 -0.0220013 3.58908 1.10695 2.46703 0.599276 0.656825 0.95187 0.76302 Cu
22 1 3.62025 1.73578 5.47344 -0.759533 0.838334 0.589825 0.38894 -0.312928 -1.61274 Cu
23 1 5.43361 0.0579124 5.42515 1.04501 0.774434 1.60349 -0.497839 -0.504862 1.30426 Cu
24 1 5.39769 1.84301 3.51367 -2.00247 -1.16945 -0.573891 1.11438 -0.823007 0.841726 Cu
13 1 -0.0152744 3.69534 3.65172 0.661125 -1.67662 -2.89396 -1.20879 -1.47519 0.19785 Cu
14 1 -0.0312895 5.42314 5.50704 2.71836 0.944912 -1.04433 -0.181823 -0.867134 0.631755 Cu
15 1 1.90586 3.58326 5.50437 -2.01251 0.306982 -2.28452 -0.540483 -0.220426 -1.51061 Cu
16 1 1.7879 5.42324 3.6393 0.975981 -2.3057 1.31736 0.478864 0.111926 0.587862 Cu
29 1 3.58166 3.61211 3.58021 3.54162 -1.10738 3.46741 2.09569 0.938232 0.308159 Cu
30 1 3.56602 5.53659 5.39716 0.165792 2.52694 2.74497 0.195478 0.301376 1.15102 Cu
31 1 5.39762 3.53188 5.42857 -0.127165 -0.433192 -0.901286 -1.44174 0.363343 -1.66451 Cu
32 1 5.39885 5.42996 3.54829 -3.48832 2.03335 -0.297496 -0.350083 -1.59847 -0.760994 Cu
