LAMMPS (23 Jun 2022 - Update 1)
Reading data file ...
  orthogonal box = (0 0 0) to (7.22 7.22 7.22)
  1 by 1 by 1 MPI processor grid
  reading atoms ...
  32 atoms
  reading velocities ...
  32 velocities
  read_data CPU = 0.003 seconds
SNAP keyword rcutfac 4.2 
SNAP keyword twojmax 4 
SNAP keyword rfac0 0.99363 
SNAP keyword rmin0 0.0 
SNAP keyword chemflag 0 
SNAP keyword bnormflag 0 
SNAP keyword switchflag 1 
SNAP keyword bzeroflag 1 
SNAP keyword wselfallflag 0 
SNAP keyword nelems 1 
SNAP keyword elems       Cu 
SNAP keyword radelems    0.5 
SNAP keyword welems      1.0 
Neighbor list info ...
  update every 1 steps, delay 10 steps, check yes
  max neighbors/atom: 2000, page size: 100000
  master list distance cutoff = 6.2
  ghost atom cutoff = 6.2
  binsize = 3.1, bins = 3 3 3
  1 neighbor lists, perpetual/occasional/extra = 1 0 0
  (1) pair mliap, perpetual
      attributes: full, newton on
      pair build: full/bin/atomonly
      stencil: full/bin/3d
      bin: standard
Setting up Verlet run ...
  Unit style    : metal
  Current step  : 0
  Time step     : 0.0015
Per MPI rank memory allocation (min/avg/max) = 9.513 | 9.513 | 9.513 Mbytes
   Step          Temp          E_pair         E_mol          TotEng         Press     
         0   395.90803     -0.19041319     0              1.3960158     -1021349.8    
       100   298.27207      0.71096639     0              1.9061618     -1009389.8    
Loop time of 0.0900706 on 1 procs for 100 steps with 32 atoms

Performance: 143.887 ns/day, 0.167 hours/ns, 1110.240 timesteps/s
89.8% CPU use with 1 MPI tasks x no OpenMP threads

MPI task timing breakdown:
Section |  min time  |  avg time  |  max time  |%varavg| %total
---------------------------------------------------------------
Pair    | 0.089276   | 0.089276   | 0.089276   |   0.0 | 99.12
Neigh   | 0          | 0          | 0          |   0.0 |  0.00
Comm    | 0.0002525  | 0.0002525  | 0.0002525  |   0.0 |  0.28
Output  | 8.9917e-05 | 8.9917e-05 | 8.9917e-05 |   0.0 |  0.10
Modify  | 0.00038916 | 0.00038916 | 0.00038916 |   0.0 |  0.43
Other   |            | 6.284e-05  |            |       |  0.07

Nlocal:             32 ave          32 max          32 min
Histogram: 1 0 0 0 0 0 0 0 0 0
Nghost:            633 ave         633 max         633 min
Histogram: 1 0 0 0 0 0 0 0 0 0
Neighs:              0 ave           0 max           0 min
Histogram: 1 0 0 0 0 0 0 0 0 0
FullNghs:         2496 ave        2496 max        2496 min
Histogram: 1 0 0 0 0 0 0 0 0 0

Total # of neighbors = 2496
Ave neighs/atom = 78
Neighbor list builds = 0
Dangerous builds = 0
Total wall time: 0:00:00
