BEGIN_CFG
 Size
    64
 Supercell
        10.927863      0.000000      0.000000
         0.000000     10.927863      0.000000
         0.000000      0.000000     10.927863
 AtomData:  id type       cartes_x      cartes_y      cartes_z           fx          fy          fz
             1    0      -0.017869     -0.031594     -0.092109     0.457090    1.856580   -0.984358
             2    0       1.387070      1.412540      1.357810    -0.888559   -0.170512   -1.048089
             3    0      -0.129119      2.501540      2.793230    -0.326397    0.274728   -0.505915
             4    0       1.279820      3.918100      3.942050     0.517158   -0.766374    1.290412
             5    0       2.605530     -0.133501      2.476550    -2.652331    1.205011    3.900151
             6    0       4.058490      0.933804      3.961340    -0.144925    1.484123    0.315366
             7    0       2.754010      2.767980     -0.005705     0.427691   -0.356218    1.018068
             8    0       4.187320      4.130670      1.350580     0.704654   -0.870741   -1.212461
             9    0       0.335397      0.221881      5.644590    -1.176078   -0.662082   -0.009939
            10    0       1.716970      1.469710      7.221700    -1.992010    1.376482   -2.163550
            11    0      -0.226356      2.835290      8.234080     0.749881   -0.326646   -2.019120
            12    0       1.327240      3.830280      9.564720    -0.491186    1.997512    0.366983
            13    0       2.560470     -0.251135      8.349000     1.155066    0.289550    1.341994
            14    0       4.018630      1.306860      9.680720     0.203919   -0.701044   -0.632808
            15    0       2.999840      2.645440      5.329610    -1.173451   -0.112035    0.528682
            16    0       4.241150      4.191430      6.705200     0.146821   -1.674028   -0.337226
            17    0       0.171312      5.458970      0.223797    -0.739627   -1.429178   -0.543443
            18    0       1.327720      6.699070      1.769210     1.011968    0.498103   -1.379203
            19    0       0.130548      8.319750      2.845890    -2.076416   -0.769354   -0.175837
            20    0       1.408400      9.472050      4.271920     0.043724    2.227835   -0.635922
            21    0       2.753180      5.183140      2.762120     0.442625    1.043757    0.614172
            22    0       4.143030      6.719780      4.017100    -2.111981   -0.072767    0.903281
            23    0       2.762710      7.950740      0.243216    -1.171099    0.819309   -0.585909
            24    0       3.971980      9.653280      1.465460     3.003722   -3.679100   -2.963409
            25    0      -0.253989      5.437130      4.871080    -0.082535    0.642024    1.722684
            26    0       1.251620      6.612020      6.466240    -0.612766   -1.778551    1.071177
            27    0      -0.048406      7.930530      7.921410     0.293734    0.380555    1.039173
            28    0       1.144160      9.251740      9.592410     0.926388   -0.337778    0.296923
            29    0       2.711080      5.034520      8.073310    -1.345535    2.754700    0.524331
            30    0       3.883750      6.770170      9.467740     1.345325   -0.837608   -0.106978
            31    0       2.624870      8.098240      5.517250     2.829046    0.190710   -0.128889
            32    0       4.057310      9.806510      6.851660     0.075584   -2.579904    0.148137
            33    0       5.438190     -0.023514      0.125514     0.499870    0.453744   -0.273530
            34    0       7.114190      1.300240      1.389180    -1.872215   -1.246168    0.083910
            35    0       5.306960      2.280160      2.478210     0.264010    1.664301    0.618161
            36    0       6.504240      3.989720      3.835210    -0.164367    0.604086    0.295772
            37    0       8.070590     -0.164029      2.914860     0.258703   -0.660862   -0.791111
            38    0       9.445550      1.147520      4.197130     0.690207    0.851073    0.760672
            39    0       8.159480      2.789520      0.104028     1.060603    1.060829   -0.722924
            40    0       9.496890      4.150850      1.626640    -0.055776    0.246117   -0.923834
            41    0       5.549780     -0.007126      5.488330    -1.990508    2.080869    1.651461
            42    0       6.645380      1.638870      6.700880     1.068621   -1.656563    0.396806
            43    0       5.342910      2.715050      8.227620     0.193630    0.606582    0.364980
            44    0       6.982000      4.050730      9.411130    -0.558268    0.387286    0.095074
            45    0       8.017110     -0.092738      8.006180     0.170660    2.203465    0.312352
            46    0       9.341170      1.493070      9.438750     0.027517   -1.945012    0.863939
            47    0       7.947440      2.781470      5.178130     0.647260   -0.513017    0.097224
            48    0       9.385540      4.083430      6.432750     0.791526    0.877312    1.146772
            49    0       5.694130      5.488440     -0.156565    -1.776757   -0.320166   -0.325684
            50    0       6.830660      6.962210      1.194370     1.619256    0.194879   -1.158862
            51    0       5.254430      7.868470      2.467480    -0.236211    2.898990    0.923504
            52    0       6.346830      9.519590      4.152260     3.114989   -2.614508   -2.353423
            53    0       7.879330      5.652410      2.804160    -0.292569   -2.306704   -1.670569
            54    0       9.052700      7.134020      3.881010     3.505926    0.708158    1.112061
            55    0       8.557280      8.376910     -0.141999    -1.603623   -0.011366    0.590647
            56    0       9.812450      9.744860      1.452040    -1.822446   -1.186470    0.612505
            57    0       5.516060      5.612090      5.439240     1.195022   -0.644494   -0.231663
            58    0       7.011900      6.975720      6.772760    -0.778440    0.954455   -0.135938
            59    0       5.472860      8.217960      8.221790    -1.146157   -0.333048   -0.923592
            60    0       6.698530      9.663720      9.495730     1.233484   -0.690358    1.119386
            61    0       8.289930      5.611640      8.098450     0.487101   -1.429721    0.025059
            62    0       9.783200      6.694260      9.643310    -0.572657    0.467204   -0.615326
            63    0       8.334870      8.627530      5.488980    -3.291248   -2.027254   -1.755697
            64    0       9.659720      9.649670      6.839180     1.983357    1.409303    1.163387
 Energy
      -7356.158234006797
 PlusStress:  xx          yy          zz          yz          xz          xy
       -13.86366   -11.66559   -11.29159     5.85076    -9.33417    -4.24849
END_CFG

BEGIN_CFG
 Size
    64
 Supercell
        10.882236      0.000000      0.000000
         0.000000     10.882236      0.000000
         0.000000      0.000000     10.882236
 AtomData:  id type       cartes_x      cartes_y      cartes_z           fx          fy          fz
             1    0      -0.002124      0.023889      0.006242    -0.243347   -0.462139   -0.231208
             2    0       1.313350      1.337240      1.364710     0.898257   -0.046296   -0.147890
             3    0       0.041343      2.708060      2.683840    -0.651069   -0.073526    0.968048
             4    0       1.301690      4.113490      4.091640     0.779208   -0.623396   -0.539673
             5    0       2.636520     -0.062603      2.780820     1.027995    0.726272   -0.797287
             6    0       4.132460      1.301530      4.085710    -0.532777   -0.178262    0.110032
             7    0       2.685990      2.669510     -0.074568    -0.334086    0.384447    0.354674
             8    0       4.001190      4.077260      1.340930    -0.071453   -0.448150   -0.043523
             9    0      -0.037688      0.062957      5.440480    -0.555080    0.180770   -0.116728
            10    0       1.348290      1.393890      6.720330    -0.369443    0.457414    0.576054
            11    0      -0.126064      2.721120      8.136850     1.040954   -0.397283    0.030642
            12    0       1.278800      4.094490      9.478270     0.020216   -0.749110    0.280107
            13    0       2.769400      0.082616      8.025480    -0.291272   -0.131679    0.507396
            14    0       4.087530      1.385380      9.445910    -0.204403   -0.529397    0.644694
            15    0       2.715530      2.729060      5.392140     0.253851    0.014634   -0.084708
            16    0       4.053920      4.042910      6.840810    -0.300394    0.169534   -0.466908
            17    0      -0.003187      5.470460     -0.032538    -0.285784   -0.159818    0.451064
            18    0       1.382540      6.852930      1.269170     0.193042   -0.197002    0.081409
            19    0       0.157739      8.200020      2.742630    -0.317596   -0.011198    0.034694
            20    0       1.376290      9.599270      4.211430    -0.300537   -0.802963   -0.102728
            21    0       2.664530      5.448620      2.704320    -0.037888    0.148836   -0.213241
            22    0       4.058130      6.802840      4.028960    -0.501736    0.359813    0.288620
            23    0       2.727790      8.150890     -0.186823     0.309617   -0.060767    1.190578
            24    0       4.018430      9.441050      1.351900    -0.198151    0.593732   -0.334085
            25    0      -0.032980      5.420200      5.369330    -0.401589    0.171019    1.406270
            26    0       1.251900      6.809400      6.868190     0.524905   -0.240573   -0.668580
            27    0       0.075962      8.242400      8.280200    -0.486184    0.187824   -0.804302
            28    0       1.481220      9.632770      9.487810    -0.636750    0.589859    0.077452
            29    0       2.652280      5.386800      8.162930     0.107290    0.386989   -0.486874
            30    0       4.065930      6.733790      9.453340     0.082428   -0.237011    0.120821
            31    0       2.697590      8.166630      5.499840    -0.244938   -0.864660   -0.287687
            32    0       4.031080      9.399150      6.891280     0.709456    0.471443   -0.403589
            33    0       5.383040     -0.023248     -0.027745     0.294299    0.193674    0.552913
            34    0       6.846390      1.304630      1.448010    -0.722845    0.097874   -0.890283
            35    0       5.394140      2.712430      2.690600     0.223309   -0.113408    0.036704
            36    0       6.752660      4.070240      4.059110     0.438211    0.418169   -0.304067
            37    0       8.205730     -0.079663      2.734780    -0.515290    0.571702    0.322691
            38    0       9.395400      1.399970      4.061380     1.471582   -0.348868   -0.309280
            39    0       8.143430      2.738840      0.055850     0.120999   -0.370580    0.158088
            40    0       9.560040      4.064360      1.420310     0.228119    0.094278   -1.234823
            41    0       5.426710     -0.164022      5.477710    -0.235065    0.644333    0.051954
            42    0       6.752050      1.322130      6.770900    -0.453665   -0.354072    0.602066
            43    0       5.416820      2.734970      8.192460     0.857346    0.009498   -0.562575
            44    0       6.797920      4.068300      9.565550     0.108904    0.223266   -0.334570
            45    0       8.108520     -0.047421      8.158770     0.174026    0.727444   -0.031853
            46    0       9.464600      1.359830      9.527290    -0.165497   -0.189533    0.175064
            47    0       8.074590      2.638950      5.428520    -0.199474    1.132639    0.158614
            48    0       9.443850      4.037630      6.803840     0.195110    0.199634   -1.051979
            49    0       5.369390      5.396420     -0.010264     0.074927   -0.047551   -0.186458
            50    0       6.746610      6.715760      1.303090     0.548404    1.082652    0.077194
            51    0       5.421510      8.164930      2.688180     0.537457   -0.379705    0.093860
            52    0       6.833050      9.509640      4.082190    -0.024648   -0.828837   -0.007956
            53    0       8.265490      5.491990      2.623670    -1.432025   -0.446366    0.833250
            54    0       9.620390      6.783230      3.974740    -0.078608    0.511253    0.176991
            55    0       8.160170      8.229840     -0.014986     0.279941   -0.832558    0.716848
            56    0       9.576690      9.514750      1.470450     0.298725   -0.390092   -1.238695
            57    0       5.316190      5.415400      5.394770     0.981399   -0.090384    0.348038
            58    0       6.880740      6.721140      6.704040    -0.446065    0.121961    0.468547
            59    0       5.453710      8.074640      8.174860     0.811862   -0.093271   -0.391653
            60    0       6.799270      9.513270      9.526540    -0.668328   -0.111336   -0.127983
            61    0       8.257600      5.422820      8.200790    -1.102878    0.155711   -0.146938
            62    0       9.556810      6.853270      9.495190    -0.294385    0.149412    0.625883
            63    0       8.284290      8.113870      5.381610    -0.238385    0.438325    0.361666
            64    0       9.567010      9.582760      6.856160    -0.050207   -0.804621   -0.334801
 Energy
      -7367.456410138875
 PlusStress:  xx          yy          zz          yz          xz          xy
        -3.58260    -2.28486    -3.51157     0.70707    -1.54345    -4.60811
END_CFG

BEGIN_CFG
 Size
    64
 Supercell
        10.915152      0.000000      0.000000
         0.000000     10.915152      0.000000
         0.000000      0.000000     10.915152
 AtomData:  id type       cartes_x      cartes_y      cartes_z           fx          fy          fz
             1    0       0.038241     -0.007639     -0.140885    -0.600325    0.389945    0.736684
             2    0       1.437510      1.246280      1.298600    -0.209441    0.797062    0.360837
             3    0      -0.046863      2.573220      2.818850     0.604172    0.228429   -0.351890
             4    0       1.423240      4.087060      4.083520    -0.675309   -0.209382   -0.122900
             5    0       2.811270     -0.048284      2.787740    -0.771002    0.684585   -0.039932
             6    0       4.092990      1.353120      4.164990     0.058062    0.631871   -0.782207
             7    0       2.771430      2.749040     -0.116410    -1.199725   -0.631348    0.170909
             8    0       4.022530      3.976010      1.351110     0.692825    0.156937    0.313883
             9    0      -0.063186     -0.084381      5.298540    -1.033135    0.951507    1.404099
            10    0       1.239560      1.371790      6.754040    -0.139331    0.273318   -0.731217
            11    0      -0.099675      2.702960      8.185030     0.425664    0.614467   -0.626924
            12    0       1.393920      4.155170      9.441050    -0.812647   -0.195415    0.634983
            13    0       2.509780     -0.026269      8.072890     0.642081   -0.431566   -0.046208
            14    0       3.879330      1.188140      9.480650     0.703753    1.358071   -0.558234
            15    0       2.803340      2.796680      5.508270    -0.890647   -0.436435    0.017901
            16    0       3.959190      4.216450      6.961490     1.158416   -0.261369   -1.525127
            17    0      -0.097517      5.422810      0.024691     1.547747   -0.559408    0.163048
            18    0       1.350070      6.922450      1.216400     0.138121   -0.642246    0.000703
            19    0       0.140690      8.195110      2.727270    -0.833742   -0.999708    0.038625
            20    0       1.323020      9.581130      4.061600     1.522052   -0.492299    0.190232
            21    0       2.670350      5.485630      2.551370    -0.221111   -0.213717    0.456751
            22    0       3.971890      6.850740      3.945990     0.770267   -0.046254    0.574869
            23    0       2.702340      8.383920     -0.054443     1.093320   -1.052198    0.567925
            24    0       4.127900      9.618220      1.416600     0.284777   -0.664643   -0.305010
            25    0      -0.067276      5.253670      5.596280     0.758940    0.257532   -0.948622
            26    0       1.335330      6.787500      6.738840     1.037265   -1.218441   -0.689340
            27    0       0.000255      8.003140      7.946380    -1.318296    1.657998    2.478423
            28    0       1.309250      9.516920      9.493670    -0.796958   -0.511429   -1.531750
            29    0       2.752020      5.632650      8.225550    -0.379007    0.586862    0.653538
            30    0       4.218640      6.925050      9.654280    -0.415537   -0.457398   -0.131826
            31    0       2.723610      8.176340      5.470520    -0.517974   -0.004967   -0.926245
            32    0       4.005110      9.498650      6.852270     0.988343    0.479598    0.039258
            33    0       5.322340      0.004009     -0.112794     0.789653   -0.075408    0.681699
            34    0       6.825420      1.401090      1.113840     0.309231   -0.969945    0.555692
            35    0       5.507490      2.548670      2.597860    -1.233603    0.367486    0.402212
            36    0       6.689810      3.959600      3.987170     0.344862    0.656338    0.210415
            37    0       8.201700     -0.017730      2.634470     0.192858    0.323787   -1.240172
            38    0       9.306390      1.337310      4.169690     1.006388    0.100052   -0.378397
            39    0       8.261130      2.842540     -0.018158    -0.937426   -0.631725   -1.088129
            40    0       9.561300      3.989320      1.397890     0.446167    0.801809    1.163294
            41    0       5.440010      0.069469      5.471750    -0.606900   -1.650810    0.103028
            42    0       6.759950      1.219330      6.866160    -0.451247    0.991415    1.551385
            43    0       5.280580      2.804030      8.227350     0.973580   -1.279636    0.268543
            44    0       6.874640      4.163200      9.469620    -0.735264   -0.650665    0.421329
            45    0       8.165380     -0.202509      8.158490    -0.132458    0.737975    0.862068
            46    0       9.488250      1.405070      9.515490    -0.198567   -1.185863   -0.029427
            47    0       7.892080      2.676260      5.512610     0.503094   -0.291794   -0.692208
            48    0       9.318960      3.941000      6.762740     0.788862    0.538701    1.024235
            49    0       5.467860      5.294660      0.079755     0.426973    1.544662   -0.206283
            50    0       6.883200      6.881590      1.405810    -0.243818   -0.967840    0.294334
            51    0       5.530380      8.267380      2.813590    -0.267603   -0.149723   -0.606481
            52    0       6.900390      9.719050      4.088530    -0.774388   -0.964355    0.426779
            53    0       8.190680      5.392940      2.815350     0.220003    0.092462   -0.518570
            54    0       9.719460      6.695840      4.123640    -1.066016    0.697519   -0.027922
            55    0       8.333590      8.147270      0.048901    -0.587175   -0.090850    0.334469
            56    0       9.730540      9.467080      1.322870    -0.578325    1.147265    0.330709
            57    0       5.377640      5.395310      5.300850    -0.839763    0.215106    0.597471
            58    0       6.709060      6.751980      6.744600     0.650189   -0.467804   -0.697483
            59    0       5.579220      8.130750      8.121580    -0.964451    1.145391    1.249484
            60    0       6.829720      9.463810      9.789150     0.063838    0.012753   -1.964313
            61    0       8.176040      5.520080      8.122760     0.194294   -0.055388    0.019559
            62    0       9.583440      6.764430      9.633210    -0.278675    0.358802   -2.017246
            63    0       8.075100      8.129530      5.406120     0.530300   -0.677219   -0.891834
            64    0       9.460150      9.414040      6.692300     0.843769    0.337543    0.376523
 Energy
      -7364.747269911571
 PlusStress:  xx          yy          zz          yz          xz          xy
        -9.10274    -9.31613    -9.62322     5.55925     0.59427    -3.23309
END_CFG

BEGIN_CFG
 Size
    64
 Supercell
        10.853833      0.000000      0.000000
         0.000000     10.853833      0.000000
         0.000000      0.000000     10.853833
 AtomData:  id type       cartes_x      cartes_y      cartes_z           fx          fy          fz
             1    0       0.193402      0.208066      0.015172    -1.182940   -0.531554    0.115339
             2    0       1.350930      1.559970      1.481960     1.146252   -1.405685   -0.046207
             3    0      -0.019996      2.699180      2.897280     0.269539    0.795490   -0.888794
             4    0       1.329020      4.094730      4.086200     1.053487    0.132426    0.503682
             5    0       2.784190     -0.121885      2.609780    -0.890010    1.629947    1.403798
             6    0       4.176280      1.351100      4.114940     0.075527   -0.279659   -0.911446
             7    0       2.648430      2.639710     -0.108587     0.903706   -0.268225    0.404483
             8    0       4.045170      4.009150      1.189650    -0.308672    0.999985    0.429342
             9    0      -0.103178      0.210298      5.460260     0.276913   -0.987426   -0.055885
            10    0       1.395030      1.418840      6.872960     0.854756   -1.062790   -0.651031
            11    0       0.048175      2.658900      8.155230    -0.238420    0.231419    1.511124
            12    0       1.250770      4.052860      9.633340    -0.171684   -0.245756   -0.439730
            13    0       2.785040     -0.082160      8.163400    -1.181155   -0.270499   -0.937503
            14    0       4.079540      1.166350      9.459550     0.320127    1.237608    1.043624
            15    0       2.804220      2.703420      5.475880    -0.384530    0.416374   -0.135280
            16    0       4.159660      4.063710      6.890730    -1.587365    0.115936   -1.153523
            17    0      -0.017153      5.452070      0.121711    -0.346599   -0.110186    0.106887
            18    0       1.176960      6.795930      1.586230     0.521812    1.269801   -1.320409
            19    0      -0.136721      8.181010      3.017940    -0.368759    0.289899   -1.357932
            20    0       1.325940      9.596490      4.141590     0.198106   -0.126510    0.666127
            21    0       2.648030      5.461440      2.650220     0.873065   -1.068196    0.419004
            22    0       4.022240      6.801470      4.048900    -0.272702   -0.155867    0.214845
            23    0       2.747990      8.058140     -0.171355    -1.041004   -1.399722    0.751326
            24    0       3.929440      9.283840      1.320700     1.429029    0.757809   -0.776490
            25    0      -0.030821      5.493670      5.352010     0.751666   -0.266446    1.347914
            26    0       1.419300      6.767070      6.920420    -1.446001   -0.743333    0.315525
            27    0      -0.007846      8.305410      8.116060     1.007714   -1.598239    0.723718
            28    0       1.342140      9.520000      9.570910     0.461312    0.202338   -0.617472
            29    0       2.646380      5.228060      8.256760     0.335667    0.724199   -0.692225
            30    0       4.163330      6.562680      9.413910    -1.005993    1.434567    0.084423
            31    0       2.628390      8.051560      5.570270     1.197690    1.754461   -1.651925
            32    0       4.137430      9.630410      6.637020    -0.341092   -1.594611    0.498470
            33    0       5.431950     -0.113594      0.023044    -0.336999   -0.102526    0.376825
            34    0       6.634670      1.472280      1.370700     1.020331   -0.675860   -1.312848
            35    0       5.427790      2.862000      2.648250    -0.339079    0.063593    1.865726
            36    0       6.833400      4.201570      4.241670     0.226792   -1.148040   -1.645455
            37    0       8.137000      0.116769      2.525330    -0.287567   -0.511068    0.781730
            38    0       9.345390      1.496040      4.015410    -0.113947   -1.466302    0.645695
            39    0       8.150770      2.822810      0.041136    -0.927659   -0.282705   -0.761879
            40    0       9.548940      3.997940      1.459290    -0.487326    1.005394    0.083305
            41    0       5.682000     -0.054284      5.366340    -0.749880    0.915143   -0.127324
            42    0       6.845860      1.409840      6.820610    -0.173940   -0.045666   -0.516320
            43    0       5.326230      2.635080      8.106520     1.283298   -0.527652    0.891185
            44    0       6.792750      4.146390      9.257270     0.232882   -0.776739    1.605571
            45    0       8.187580      0.116598      8.157250    -0.492740   -1.490165   -0.092694
            46    0       9.459990      1.386340      9.542160     0.704742    0.483913    0.533428
            47    0       8.237290      2.790940      5.531800    -1.343613   -0.083623   -0.448356
            48    0       9.705100      3.950240      6.774860    -0.437916    1.802056   -0.155014
            49    0       5.515500      5.445970     -0.016604     0.570682   -0.776203    0.034022
            50    0       6.903590      6.854060      1.290000     0.150334    0.061459   -0.842490
            51    0       5.388270      8.031900      2.576760     0.104969    0.238531    0.758704
            52    0       6.787440      9.422700      3.884140     0.607994    0.060772   -0.133861
            53    0       8.123150      5.491380      2.719660    -0.052438   -0.990763   -0.320874
            54    0       9.252860      6.732500      4.229980     1.438734    0.381558   -0.676491
            55    0       8.316200      8.277660     -0.189430    -0.561901   -0.461355    1.027288
            56    0       9.609710      9.635020      1.283590     0.270236   -0.454551    0.467674
            57    0       5.339750      5.389950      5.402520    -0.671082    0.346078    0.157792
            58    0       6.679060      6.511400      6.858330     0.604767    1.828097   -0.740692
            59    0       5.366040      8.033230      8.019830     0.054376    0.682120    0.270284
            60    0       6.751480      9.464100      9.407140     0.181334    0.192515   -0.434673
            61    0       8.306530      5.435940      8.040670     0.396299   -0.565971    0.273116
            62    0       9.623200      6.774440      9.463890    -0.133462    0.323390   -0.229154
            63    0       7.971240      8.057730      5.472050    -0.593428    0.823235    0.967354
            64    0       9.477770      9.463220      6.804760    -1.054237    1.273776   -1.205353
 Energy
      -7363.976986316125
 PlusStress:  xx          yy          zz          yz          xz          xy
         5.51296     2.26824     3.72617     4.72263     4.55980    -7.84471
END_CFG

BEGIN_CFG
 Size
    64
 Supercell
        10.872579      0.000000      0.000000
         0.000000     10.872579      0.000000
         0.000000      0.000000     10.872579
 AtomData:  id type       cartes_x      cartes_y      cartes_z           fx          fy          fz
             1    0       0.080928     -0.025672     -0.136613    -0.609305    0.820516    1.090334
             2    0       1.277610      1.465950      1.423010    -0.100826   -0.639405   -0.247792
             3    0      -0.232669      2.694270      2.848420     1.571222    0.121243   -0.762211
             4    0       1.431430      3.991430      3.929770    -1.469981    0.720204   -0.004713
             5    0       2.748840      0.132085      2.856190    -0.297165   -0.452675   -0.969524
             6    0       4.156070      1.361620      4.236070    -0.180751    1.238954   -0.788686
             7    0       2.591370      2.758940     -0.093552    -0.363982    1.015515    1.143892
             8    0       3.977960      4.236430      1.317110    -0.015877   -1.247440   -0.229230
             9    0       0.114446      0.021623      5.541990    -0.874263   -1.157355   -0.981878
            10    0       1.471670      1.392790      6.729050    -0.277763    0.165337   -0.372902
            11    0       0.148800      2.735900      7.964440    -1.816379   -0.371182    1.274916
            12    0       1.242510      4.150560      9.393640     0.592711    0.060252    0.611238
            13    0       2.794230      0.111087      7.993530     1.077090   -0.865071   -0.136180
            14    0       3.898330      1.417800      9.518000     1.524504   -0.028413   -0.597961
            15    0       2.627610      2.842540      5.405070     1.736314   -1.222716    0.248756
            16    0       4.147370      3.913740      6.804360    -1.753842    1.420992    0.101910
            17    0      -0.081629      5.337880      0.059168     0.255800    0.402807    0.159018
            18    0       1.369040      6.784790      1.361270    -0.813697   -0.005140   -0.541243
            19    0       0.070364      8.163700      2.743160    -1.070986   -0.166033   -0.730186
            20    0       1.399330      9.459050      4.038890     0.006845    1.379761    0.703047
            21    0       2.672080      5.497990      2.733580    -0.078997   -0.361808   -0.522484
            22    0       3.992970      6.731270      4.083370     0.961381    0.707845    0.165434