BEGIN_CFG
Size
64
Supercell
  10.92786266045530929603     0.00000000000000000000     0.00000000000000000000
   0.00000000000000000000    10.92786266045530929603     0.00000000000000000000
   0.00000000000000000000     0.00000000000000000000    10.92786266045530929603
AtomData: id type cartes_x cartes_y cartes_z fx fy fz
1 0   -0.01786930000000000116   -0.03159359999999999946   -0.09210949999999999693    0.34311679959326002454    1.94470976569930997790   -1.10328037964430003548
2 0    1.38707000000000002515    1.41253999999999990678    1.35780999999999996142   -0.93112055471842003485   -0.14475927396721999241   -1.22033479813007006420
3 0   -0.12911900000000001154    2.50153999999999987480    2.79322999999999987963   -0.38010383522362001241    0.16671502082451999938   -0.39237396944960001299
4 0    1.27981999999999995765    3.91809999999999991616    3.94205000000000005400    0.47752329087431999444   -0.78369554843708000291    1.24193655148175996494
5 0    2.60552999999999990166   -0.13350100000000000855    2.47655000000000002913   -2.75736244770549987493    1.32147904176862995840    3.89007268394794980537
6 0    4.05848999999999993094    0.93380399999999996741    3.96133999999999986130   -0.19368052729376999954    1.30502230570827992828    0.23444865096885000866
7 0    2.75401000000000006906    2.76798000000000010701   -0.00570488999999999979    0.49615810380010999525   -0.25008292037649998418    1.01724903644117992130
8 0    4.18731999999999970896    4.13067000000000028592    1.35057999999999989171    0.82338984145153004679   -0.83152797692484003989   -1.34988695167180994261
9 0    0.33539700000000000069    0.22188099999999999490    5.64458999999999999631   -1.22070360069613004228   -0.58845232493678001351    0.00939289361251000043
10 0    1.71697000000000010722    1.46971000000000007191    7.22170000000000023022   -1.64871820612909991688    1.47158046810923992531   -1.84434562614919994594
11 0   -0.22635600000000000165    2.83529000000000008797    8.23408000000000050989    0.60546906792173005307   -0.20838567014904998964   -2.00403623603877001358
12 0    1.32723999999999997534    3.83028000000000012903    9.56471999999999944464   -0.67682012898581001004    1.93306026370654993052    0.30352780156638997644
13 0    2.56047000000000002373   -0.25113499999999999712    8.34900000000000019895    1.08211031149429004472    0.30048602335598001423    1.35984547862811000485
14 0    4.01862999999999992440    1.30685999999999991061    9.68072000000000087994    0.13256020430236001295   -0.76891055377334005527   -0.64942331569055000706
15 0    2.99983999999999983999    2.64543999999999979167    5.32960999999999973653   -1.14467785684325007445    0.05952282434622999802    0.50652945796848003468
16 0    4.24115000000000019753    4.19143000000000043315    6.70519999999999960494    0.24184639147941999759   -1.43465852551649009072   -0.31349318346445997907
17 0    0.17131199999999999206    5.45896999999999987807    0.22379699999999999593   -0.63968552803176004229   -1.32836258724079003812   -0.58577636249663000978
18 0    1.32772000000000001130    6.69906999999999985818    1.76920999999999994934    1.06120861504364993877    0.50410868770848005216   -1.25004702359010000379
19 0    0.13054799999999999738    8.31975000000000086686    2.84588999999999980872   -2.24614582974073995203   -0.74819590908168998045   -0.19781233867788999836
20 0    1.40840000000000009628    9.47204999999999941451    4.27191999999999971749   -0.12714678273526000551    2.01525382405062991609   -0.63164648685072999346
21 0    2.75317999999999996064    5.18313999999999985846    2.76211999999999990862    0.42142197091430000366    0.89648281221676995312    0.62388715947387995975
22 0    4.14303000000000043457    6.71978000000000008640    4.01710000000000011511   -2.15908201027799018235   -0.13419514843583998931    0.97672988239987001968
23 0    2.76271000000000022112    7.95073999999999969646    0.24321599999999998776   -1.11640256891266997918    0.84232738225004000210   -0.77253552919681001132
24 0    3.97197999999999984411    9.65328000000000052694    1.46545999999999998487    3.01886403754800980437   -3.61925481224370004796   -2.75452137744286007504
25 0   -0.25398900000000002031    5.43712999999999979650    4.87108000000000007645   -0.07690524608318000110    0.65460974261204996072    1.31502238487352007823
26 0    1.25161999999999995481    6.61202000000000023050    6.46623999999999998778   -0.49307446239143998268   -1.60584000305193996816    1.10135596442798999739
27 0   -0.04840620000000000339    7.93053000000000007930    7.92140999999999984027    0.19100964616617999159    0.40946451984873000196    1.08503419976498993726
28 0    1.14416000000000006587    9.25173999999999985278    9.59240999999999921499    0.83157816491122005242   -0.54443096518389000327    0.19117312279806000785
29 0    2.71107999999999993435    5.03451999999999966207    8.07330999999999932015   -1.46018599966357998099    2.53135440589475013695    0.46313524237074998879
30 0    3.88375000000000003553    6.77017000000000024329    9.46773999999999915644    1.38295633090512004593   -0.84063305932341003679   -0.06704005424865000506
31 0    2.62487000000000003652    8.09824000000000054911    5.51724999999999976552    2.93047282018449983809    0.41778381012521997873   -0.13849083284197999388
32 0    4.05731000000000019412    9.80650999999999939405    6.85165999999999986159    0.06064094600008999858   -2.50203806897985003843    0.13462565339992998981
33 0    5.43818999999999963535   -0.02351400000000000018    0.12551399999999998669    0.76047432607617004852    0.60043715221877003163   -0.20245631759349999590
34 0    7.11418999999999979167    1.30024000000000006239    1.38918000000000008143   -1.80421731097188997595   -0.98618295942279998734    0.03484459778857999790
35 0    5.30696000000000012164    2.28015999999999996461    2.47820999999999980190    0.16427001142514000009    1.71687508456538995283    0.53916090223835000383
36 0    6.50424000000000024357    3.98972000000000015518    3.83521000000000000796   -0.24771454977991999580    0.58872426323279003491    0.35466712518262999421
37 0    8.07058999999999926445   -0.16402900000000000813    2.91486000000000000654    0.26311792180005999509   -0.80468583429710005550   -0.60029575438342996918
38 0    9.44555000000000077875    1.14752000000000009550    4.19712999999999958334    0.78578022024070004470    0.76750553657528997054    0.82475717412855997779
39 0    8.15948000000000028820    2.78951999999999999957    0.10402799999999999547    1.09626946782963008431    0.98047161411740002546   -0.87386124770583994970
40 0    9.49689000000000049795    4.15085000000000015064    1.62664000000000008583    0.08375484410012999648    0.36085466827280998636   -0.85743126392825996795
41 0    5.54978000000000015746   -0.00712648000000000014    5.48833000000000037488   -2.02570930226774992278    2.19325765751018986194    1.55250873859177995762
42 0    6.64538000000000028678    1.63887000000000004896    6.70087999999999972545    1.12708931666633005442   -1.70287412706458995970    0.33758121970332000128
43 0    5.34290999999999982606    2.71505000000000018545    8.22761999999999993349    0.03905492524320999803    0.51685866137138003484    0.39089487141931000824
44 0    6.98200000000000020606    4.05072999999999971976    9.41112999999999999545   -0.58768819872996003184    0.19599194665433999907    0.11179394127269999537
45 0    8.01711000000000062471   -0.09273750000000000049    8.00618000000000051841    0.10482767543859000670    2.06332376664997996230    0.24566691197981999073
46 0    9.34116999999999997328    1.49306999999999989726    9.43875000000000063949    0.05158196444462000152   -1.90971702778130003608    0.90791679054533003246
47 0    7.94744000000000028194    2.78147000000000010900    5.17813000000000034362    0.75363712391226000964   -0.41958688168016999853    0.20104917403486999294
48 0    9.38554000000000065995    4.08342999999999989313    6.43275000000000041211    0.93907997895887995732    0.95401928788762002664    1.35396623741013999442
49 0    5.69413000000000035783    5.48843999999999976325   -0.15656500000000000972   -1.96474923954943991866   -0.18870477212971001335   -0.33773273436238998579
50 0    6.83065999999999995396    6.96220999999999978769    1.19436999999999993172    1.82792976572157006565    0.08528785856642000229   -1.26276715590169996695
51 0    5.25443000000000015604    7.86847000000000029729    2.46748000000000011767   -0.13796802362811999565    2.79544275583943990782    0.90015170971550995116
52 0    6.34682999999999974960    9.51959000000000088448    4.15226000000000006196    3.12717351033930013315   -2.83081927687072010258   -2.39249706511184001556
53 0    7.87933000000000038909    5.65240999999999971237    2.80415999999999998593   -0.50374807065703997022   -2.17715341198961986890   -1.52950269153036999548
54 0    9.05269999999999974705    7.13401999999999958391    3.88100999999999984880    3.26390748976595013175    0.71844826297243002955    1.06282220443349006977
55 0    8.55728000000000044167    8.37691000000000052239   -0.14199899999999998634   -1.56579408484143001168    0.00831515726678999992    0.61264277977217995730
56 0    9.81245000000000011653    9.74485999999999918941    1.45203999999999999737   -1.71363552419727005471   -1.22602890533658004379    0.63212582946216999691
57 0    5.51606000000000040728    5.61209000000000024500    5.43923999999999985278    1.32105460195772006493   -0.60475679802641002514   -0.13095082078406999893
58 0    7.01189999999999979963    6.97571999999999992070    6.77275999999999989143   -0.76074976263398996768    1.00679806452624998059   -0.11551498454292999374
59 0    5.47285999999999983601    8.21795999999999970953    8.22179000000000037573   -1.20100266237610009412   -0.42740963058064002089   -0.87081651932038994790
60 0    6.69852999999999987324    9.66371999999999964359    9.49573000000000000398    1.09643573488696000062   -0.81983905950125002260    1.01363034547196995128
61 0    8.28993000000000002103    5.61164000000000040558    8.09844999999999970441    0.53323122530638000782   -1.58655552660655008168    0.21249681030119998981
62 0    9.78320000000000078444    6.69425999999999987722    9.64330999999999960437   -0.57242082595204002438    0.38509275612527998911   -0.69759299420802001190
63 0    8.33487000000000044508    8.62753000000000014325    5.48897999999999974818   -3.07100235297794021960   -1.96246199090867001757   -1.59566925640560008937
64 0    9.65972000000000008413    9.64967000000000041382    6.83917999999999981497    1.98921884729144005099    1.26853415724053997238    0.99948974378664001694
Energy
-7356.43389773825037991628
PlusStress: xx yy zz yz xz xy
 -12.95537137493673718325  -10.85024772351233934842  -12.28968205377516476062    3.50269801599399865921   -7.03643516404283175802   -3.61439543571028609747
END_CFG

BEGIN_CFG
Size
64
Supercell
  10.88223584535726473632     0.00000000000000000000     0.00000000000000000000
   0.00000000000000000000    10.88223584535726473632     0.00000000000000000000
   0.00000000000000000000     0.00000000000000000000    10.88223584535726473632
AtomData: id type cartes_x cartes_y cartes_z fx fy fz
1 0   -0.00212446999999999983    0.02388859999999999942    0.00624192999999999970   -0.29741086204582001251   -0.43076757240202001586   -0.18240159929044000298
2 0    1.31335000000000001741    1.33723999999999998423    1.36471000000000008967    0.90167559866072000130   -0.12470503511583999612   -0.14986117877801000131
3 0    0.04134319999999999662    2.70806000000000013372    2.68384000000000000341   -0.65510156166914002007   -0.01496283533785999938    0.94892280506280002328
4 0    1.30169000000000001371    4.11348999999999964672    4.09163999999999994373    0.80488083044750002859   -0.58861598915532997722   -0.50276537576236002280
5 0    2.63651999999999997470   -0.06260340000000000349    2.78081999999999984752    1.00195814006427008636    0.71668975926564004730   -0.78273103153586998104
6 0    4.13246000000000002217    1.30153000000000007574    4.08570999999999973085   -0.51826364763865995222   -0.15984308159350998912    0.02825988975012000068
7 0    2.68598999999999987764    2.66950999999999982748   -0.07456780000000000352   -0.35026198046086998161    0.41607870274788000264    0.37234471619873998893
8 0    4.00119000000000024642    4.07725999999999988432    1.34092999999999995531   -0.03926336710705000121   -0.51743839819834003269   -0.05979571322342999706
9 0   -0.03768849999999999978    0.06295720000000000482    5.44047999999999998266   -0.57720944622107994704    0.18632100958485001141   -0.09381936085677999859
10 0    1.34828999999999998849    1.39389000000000007340    6.72032999999999969276   -0.36715201260432001051    0.47082999710642997604    0.51281910483449000271
11 0   -0.12606400000000000938    2.72111999999999998323    8.13685000000000080433    1.09338470230582007758   -0.40570786533776997951    0.02228034996603999937
12 0    1.27879999999999993676    4.09449000000000040700    9.47827000000000019497    0.03263928203069999673   -0.70624797117334003893    0.32274338186614998092
13 0    2.76940000000000008384    0.08261580000000000312    8.02547999999999994714   -0.32007439954770000590   -0.12706833603035999625    0.48873125740524997473
14 0    4.08753000000000010772    1.38538000000000005585    9.44590999999999958447   -0.19435381532420001327   -0.51979076623956999015    0.64505104936836998863
15 0    2.71553000000000022141    2.72906000000000004135    5.39214000000000037716    0.31998296192179997988   -0.04062511624970999852   -0.05105384476209000322
16 0    4.05391999999999974591    4.04291000000000000369    6.84081000000000027939   -0.30858495017754999923    0.22302022222549999775   -0.45370628815949998192
17 0   -0.00318674999999999991    5.47046000000000010033   -0.03253770000000000273   -0.34310889725091997526   -0.16577173590509000634    0.52383356004234005177
18 0    1.38254000000000010218    6.85292999999999974392    1.26916999999999990933    0.19842538778303001057   -0.16529311585480999103   -0.00549400114137999981
19 0    0.15773899999999999033    8.20002000000000030866    2.74263000000000012335   -0.27987594308623997552   -0.05068666588436999965    0.08124235898920000032
20 0    1.37629000000000001336    9.59927000000000063551    4.21143000000000000682   -0.35714016507163998115   -0.78196942108592004672   -0.12972667975187998635
21 0    2.66453000000000006509    5.44862000000000001876    2.70432000000000005713   -0.04102793245874999939    0.19678110883468000192   -0.21612121432695000078
22 0    4.05813000000000023704    6.80283999999999977604    4.02895999999999965269   -0.46884891042131998651    0.39689962457611999147    0.29841621667549000918
23 0    2.72779000000000015902    8.15089000000000041268   -0.18682299999999998907    0.35573410950272998932   -0.06803776852418000343    1.24154510674785001356
24 0    4.01843000000000039051    9.44105000000000060822    1.35190000000000010161   -0.23567330705278000114    0.53560073615301995176   -0.38363667023122999256
25 0   -0.03298009999999999831    5.42020000000000035101    5.36932999999999971408   -0.47105531021908997324    0.15574386604310999638    1.41159435339144989641
26 0    1.25190000000000001279    6.80940000000000011937    6.86819000000000023931    0.55219037931823000687   -0.21968315688622999660   -0.68277725139946998656
27 0    0.07596229999999999649    8.24239999999999994884    8.28020000000000067075   -0.48632075011961001243    0.15943136156092999056   -0.80935410423221998411
28 0    1.48121999999999998110    9.63277000000000072077    9.48780999999999963279   -0.59319644021763995312    0.50988649992215995255    0.05869445838948000177
29 0    2.65228000000000019298    5.38680000000000003268    8.16292999999999935312    0.12081503917979000140    0.33679080223655999404   -0.49591401022794001641
30 0    4.06592999999999982208    6.73378999999999994230    9.45334000000000074238    0.05465674957649999804   -0.20767635580349000368    0.09397912530124000186
31 0    2.69758999999999993236    8.16662999999999961176    5.49983999999999983999   -0.28437427513453999994   -0.87977784060611996519   -0.27559814235562002382
32 0    4.03108000000000021856    9.39915000000000055991    6.89128000000000007219    0.73056720320293999649    0.44001295926815997550   -0.41003724944649000417
33 0    5.38304000000000026915   -0.02324800000000000130   -0.02774480000000000002    0.35189631160585999048    0.23016429989917999710    0.58449802507193004963
34 0    6.84639000000000041979    1.30462999999999995637    1.44801000000000001933   -0.72906409725073995087    0.12448758705614999809   -0.96329626650521005260
35 0    5.39414000000000015689    2.71242999999999989669    2.69059999999999988063    0.33888067172342001276   -0.14524495844933998923    0.03477334672534999893
36 0    6.75265999999999966263    4.07024000000000008015    4.05911000000000043997    0.38537478916181000521    0.41675310486375999330   -0.28545519687089998540
37 0    8.20573000000000085663   -0.07966289999999999483    2.73478000000000021075   -0.55724068365944001702    0.60381247247905001085    0.29735983759670997495
38 0    9.39540000000000041780    1.39996999999999993669    4.06137999999999976808    1.46187818768774002720   -0.35121084638063998495   -0.29662393777753998103
39 0    8.14343000000000039051    2.73884000000000016328    0.05585009999999999974    0.14054355997313000559   -0.40314120157186000837    0.19462630970063998781
40 0    9.56004000000000075943    4.06435999999999975074    1.42030999999999996142    0.21189639828598000326    0.10179580524084000381   -1.25915338496604989338
41 0    5.42670999999999992269   -0.16402200000000000113    5.47771000000000007901   -0.26607579914638002094    0.67860975377709997769    0.10264470187405999591
42 0    6.75204999999999966320    1.32213000000000002743    6.77090000000000014069   -0.40460570992483002595   -0.38478202182058002245    0.55780936043594997464
43 0    5.41682000000000041240    2.73497000000000012321    8.19246000000000051955    0.91494246599666995134    0.05796642699151000055   -0.58495002971710996498
44 0    6.79792000000000040671    4.06829999999999980531    9.56554999999999999716    0.15140987762714000486    0.25215210268687998640   -0.29086096656991000664
45 0    8.10852000000000039392   -0.04742060000000000025    8.15877000000000052182    0.11092930910791000410    0.72817068453952005225   -0.04904284985503999661
46 0    9.46460000000000079012    1.35983000000000009422    9.52729000000000070258   -0.16093581982942001263   -0.20611178518618999966    0.12598900225906001227
47 0    8.07459000000000060027    2.63894999999999990692    5.42851999999999978996   -0.25056405173708001799    1.16390957788705007303    0.20456204964561000570
48 0    9.44384999999999941167    4.03763000000000005230    6.80384000000000010999    0.19995158916124000648    0.11136403308834000314   -1.05540702248095996652
49 0    5.36939000000000010715    5.39641999999999999460   -0.01026430000000000051    0.04575121690269000341   -0.05381389960183000087   -0.13526907917214001098
50 0    6.74661000000000043997    6.71576000000000039591    1.30309000000000008157    0.52473334758964995661    1.05443011813246001473    0.05987256888262999788
51 0    5.42150999999999960721    8.16493000000000002103    2.68818000000000001393    0.59528368450921997912   -0.36545880518830997641    0.12608781305896998859
52 0    6.83305000000000006821    9.50963999999999920476    4.08218999999999976325    0.00328614528018999997   -0.80200178986711001539    0.00689110960229000029
53 0    8.26548999999999978172    5.49199000000000037147    2.62367000000000016868   -1.40444646351430990627   -0.47174715264715999519    0.84192432871064004640
54 0    9.62039000000000044110    6.78322999999999964871    3.97474000000000016186   -0.10350289735492000653    0.53038649303258000867    0.12296644407402000654
55 0    8.16017000000000081172    8.22983999999999937813   -0.01498550000000000056    0.19462713267446998811   -0.86556607113748995630    0.71266641912841000028
56 0    9.57668999999999925876    9.51474999999999937472    1.47045000000000003482    0.30641940461879002555   -0.43282762843493999272   -1.24494588760870006361
57 0    5.31618999999999974904    5.41539999999999999147    5.39477000000000028734    0.98731747887633003469   -0.05714392015862999885    0.40386519296392997536
58 0    6.88074000000000030042    6.72114000000000011426    6.70403999999999999915   -0.50553132233149000729    0.13421517688622000564    0.42947630095991001786
59 0    5.45371000000000005770    8.07464000000000048374    8.17486000000000068155    0.86706066931823000399   -0.09138920964633000243   -0.37326419159770002354
60 0    6.79926999999999992497    9.51327000000000033708    9.52654000000000067416   -0.70116895114416000201   -0.08586415611415000593   -0.09462604690539000440
61 0    8.25760000000000005116    5.42281999999999975159    8.20078999999999957993   -1.16381579001415991215    0.20337866612495000829   -0.18798825241746999759
62 0    9.55681000000000047123    6.85327000000000019497    9.49518999999999913086   -0.22798918087173999925    0.18984563282604999257    0.62545792731836002964
63 0    8.28429000000000037573    8.11387000000000035982    5.38161000000000022681   -0.24739885580050999248    0.41216942854696997367    0.35983340237964001052
64 0    9.56700999999999979195    9.58276000000000038881    6.85616000000000003212   -0.04845502768637999919   -0.84672553999523003654   -0.33608504645136000333
Energy
-7367.51445218193020991748
PlusStress: xx yy zz yz xz xy
  -2.92172616101901638785   -2.20081049397231698350   -3.25657529140388923850    0.37441002359716735182   -1.41283267524694400308   -3.60974878427771406209
END_CFG

BEGIN_CFG
Size
64
Supercell
  10.91515184399283455718     0.00000000000000000000     0.00000000000000000000
   0.00000000000000000000    10.91515184399283455718     0.00000000000000000000
   0.00000000000000000000     0.00000000000000000000    10.91515184399283455718
AtomData: id type cartes_x cartes_y cartes_z fx fy fz
1 0    0.03824110000000000009   -0.00763858999999999979   -0.14088500000000001022   -0.58369416715168997989    0.27945700973749998397    0.76985906608425003217
2 0    1.43751000000000006551    1.24628000000000005443    1.29859999999999997655   -0.28772549971532002111    0.84968212798340003733    0.45655007296084998414
3 0   -0.04686339999999999950    2.57322000000000006281    2.81884999999999985576    0.57096444859386996651    0.18179168627712000150   -0.40030192240931999903
4 0    1.42324000000000006061    4.08706000000000013728    4.08352000000000003865   -0.72212274841626000743   -0.19927491163859001322   -0.18253992047577999314
5 0    2.81126999999999993562   -0.04828410000000000341    2.78773999999999988475   -0.80124410030939996474    0.75776242364154000608   -0.06709655497753000408
6 0    4.09299000000000035016    1.35312000000000010047    4.16499000000000041410    0.13151634059820999090    0.57985078821142999050   -0.71216847982063002931
7 0    2.77143000000000006011    2.74903999999999992809   -0.11640999999999999959   -1.24478646770390999343   -0.70011789891895004345    0.26980210264047999047
8 0    4.02252999999999971692    3.97601000000000004420    1.35111000000000003318    0.77747318267520004742    0.14874436930186998862    0.38106523743886000499
9 0   -0.06318640000000000367   -0.08438080000000000580    5.29854000000000002757   -1.08203556924740995626    0.97498524711282996691    1.40996690516702005702
10 0    1.23955999999999999517    1.37179000000000006487    6.75403999999999982151   -0.10098702091432999739    0.21276235846613000824   -0.82919413363580996013
11 0   -0.09967539999999999734    2.70296000000000002927    8.18502999999999936165    0.45814371307709000902    0.60311842112900004853   -0.56084278385696995084
12 0    1.39392000000000004789    4.15517000000000003013    9.44105000000000060822   -0.75273779716680000451   -0.13221945032320001068    0.50861285107686005080
13 0    2.50978000000000012193   -0.02626939999999999831    8.07288999999999923318    0.58988833723695999200   -0.41560897188830997484   -0.01894494993968999855
14 0    3.87932999999999994500    1.18813999999999997392    9.48065000000000068781    0.74545708918923003772    1.42517735954692992273   -0.66926445697588998751
15 0    2.80333999999999994301    2.79667999999999983274    5.50827000000000044366   -0.82936549289317995637   -0.33764819037114002231    0.01865618400713000072
16 0    3.95918999999999998707    4.21645000000000003126    6.96149000000000039989    1.13963590642564005506   -0.30230426834497997612   -1.51046027542695004975
17 0   -0.09751740000000000408    5.42281000000000013017    0.02469129999999999936    1.40663457349232001725   -0.64961208959262994878    0.17303800996766000031
18 0    1.35007000000000010331    6.92245000000000043627    1.21639999999999992575    0.10852189131339000372   -0.60998586397704002149   -0.03604130562992999970
19 0    0.14069000000000000949    8.19510999999999967258    2.72726999999999986102   -0.83745396620072998228   -1.04660400650063989403    0.08503533888144999831
20 0    1.32302000000000008484    9.58112999999999992440    4.06160000000000032117    1.52751182502008009401   -0.48186836994909998388    0.16959078746913999747
21 0    2.67035000000000000142    5.48562999999999956202    2.55136999999999991573   -0.24476132393686000910   -0.19642241424959000495    0.40094699634429997737
22 0    3.97189000000000014268    6.85074000000000005173    3.94599000000000010857    0.85590816487373999610   -0.06582978203610999335    0.52290727072913001372
23 0    2.70233999999999996433    8.38391999999999981696   -0.05444340000000000290    1.09766591078274000637   -1.04282932396427008293    0.51555626168760004813
24 0    4.12790000000000034674    9.61822000000000087994    1.41660000000000008136    0.32485686568875998814   -0.75335744309913998951   -0.17276293703864001317
25 0   -0.06727600000000000247    5.25366999999999961801    5.59628000000000014325    0.74671273001855997808    0.34560738579938998782   -0.99525452300297001518
26 0    1.33532999999999990592    6.78749999999999964473    6.73883999999999971919    1.02687742839946993811   -1.39471416038568007956   -0.61383389238136998323
27 0    0.00025497999999999997    8.00314000000000014268    7.94638000000000044309   -1.28177190322109990639    1.71333211794238993164    2.62624195222052003729
28 0    1.30925000000000002487    9.51692000000000071225    9.49366999999999983118   -0.77616361135503997293   -0.46256605174134002301   -1.57883493377334005459
29 0    2.75201999999999991076    5.63264999999999993463    8.22555000000000013927   -0.41068837420825998752    0.62159343303781999790    0.68652406514034003404
30 0    4.21863999999999972346    6.92504999999999970584    9.65427999999999997272   -0.43360146630878998453   -0.53473277561312004824   -0.16810438495502000311
31 0    2.72360999999999986443    8.17633999999999971919    5.47051999999999960522   -0.60319462988270999837   -0.06286517107212000188   -0.94813504471047005406
32 0    4.00511000000000016996    9.49864999999999959357    6.85226999999999986102    1.12263765512010005310    0.52363218914999998255    0.05203867366658000010
33 0    5.32233999999999962682    0.00400888000000000026   -0.11279400000000000537    0.69297067264534994990   -0.02902859065247000159    0.69542372354063997086
34 0    6.82542000000000026461    1.40108999999999994657    1.11383999999999994124    0.31183667004684001434   -1.00872219425661002745    0.49476606533631001250
35 0    5.50748999999999977462    2.54866999999999999105    2.59785999999999983601   -1.28280784449289009252    0.39359988327868000724    0.43518746315117001755
36 0    6.68980999999999959016    3.95960000000000000853    3.98716999999999988091    0.40432248288605998621    0.65690102616824996851    0.21551158595208000368
37 0    8.20170000000000065654   -0.01773049999999999973    2.63446999999999986741    0.20869305841015001191    0.30529565550004000851   -1.23902145370486005405
38 0    9.30639000000000038426    1.33730999999999999872    4.16969000000000011852    1.00064155146441002842    0.19111621920390001184   -0.40298436298045997583
39 0    8.26112999999999964018    2.84254000000000006665   -0.01815790000000000112   -0.90241328861873004730   -0.59009154390940998791   -1.11329111870456998190
40 0    9.56129999999999924398    3.98932000000000019924    1.39789000000000007695    0.48320781331189999186    0.78994950891480997246    1.24145361403257004085
41 0    5.44001000000000001222    0.06946860000000000535    5.47175000000000011369   -0.54383210126641001736   -1.60438516061435998417    0.02775651062576000097
42 0    6.75994999999999990337    1.21933000000000002494    6.86615999999999981895   -0.46511373365900998689    1.05839957158001007897    1.47692048198986003449
43 0    5.28057999999999960750    2.80403000000000002245    8.22734999999999949694    1.08103153727815004537   -1.34003113039036003684    0.26351456330008998785
44 0    6.87464000000000030610    4.16319999999999978968    9.46962000000000081457   -0.76661789367303001530   -0.67725469718957997944    0.40396375534140999131
45 0    8.16538000000000074863   -0.20250899999999999457    8.15849000000000046384   -0.05686650221187000004    0.85498867181433002571    0.95453709223323002231
46 0    9.48825000000000073896    1.40507000000000004114    9.51548999999999978172   -0.17477957705464999827   -1.17383455671537006992    0.01630833970757000068
47 0    7.89207999999999998408    2.67626000000000008328    5.51260999999999956600    0.44853930466713998193   -0.39906372215134000569   -0.67976828607776995650
48 0    9.31896000000000057639    3.94099999999999983658    6.76273999999999997357    0.84219009704383995807    0.55374838552995997443    1.03582020823246989671
49 0    5.46785999999999994259    5.29466000000000036607    0.07975480000000000069    0.39857048823791002556    1.59788505041946993224   -0.18716021021099998878