LAMMPS (3 Aug 2022)
Reading data file ...
  triclinic box = (0 0 0) to (5.105311 4.421329 4.1684689) with tilt (2.5526555 2.5526555 1.4737763)
  1 by 1 by 1 MPI processor grid
  reading atoms ...
  8 atoms
  reading velocities ...
  8 velocities
  read_data CPU = 0.002 seconds
8 atoms in group Cu
SNAP keyword rcutfac 4.2 
SNAP keyword twojmax 4 
SNAP keyword rfac0 0.99363 
SNAP keyword rmin0 0.0 
SNAP keyword switchflag 1 
SNAP keyword bzeroflag 1 
SNAP keyword wselfallflag 0 
SNAP keyword nelems 1 
SNAP keyword elems       Cu 
SNAP keyword radelems    0.5 
SNAP keyword welems      1.0 
Neighbor list info ...
  update every 1 steps, delay 10 steps, check yes
  max neighbors/atom: 2000, page size: 100000
  master list distance cutoff = 6.2
  ghost atom cutoff = 6.2
  binsize = 3.1, bins = 4 2 2
  1 neighbor lists, perpetual/occasional/extra = 1 0 0
  (1) pair mliap, perpetual
      attributes: full, newton on
      pair build: full/bin/atomonly
      stencil: full/bin/3d
      bin: standard
Setting up Verlet run ...
  Unit style    : metal
  Current step  : 0
  Time step     : 0.0005
Per MPI rank memory allocation (min/avg/max) = 9.891 | 9.891 | 9.891 Mbytes
   Step          Temp          E_pair         E_mol          TotEng         Press          Volume    
         0   4.2305946     -0.056165611    0             -0.05233768    -11827.743      94.091762    
        10   592.94371      0.081894345    0              0.61840227     73900.326      86.752957    
Loop time of 0.00916614 on 1 procs for 10 steps with 8 atoms

Performance: 47.130 ns/day, 0.509 hours/ns, 1090.972 timesteps/s
100.0% CPU use with 1 MPI tasks x no OpenMP threads

MPI task timing breakdown:
Section |  min time  |  avg time  |  max time  |%varavg| %total
---------------------------------------------------------------
Pair    | 0.008937   | 0.008937   | 0.008937   |   0.0 | 97.50
Neigh   | 0          | 0          | 0          |   0.0 |  0.00
Comm    | 7.1018e-05 | 7.1018e-05 | 7.1018e-05 |   0.0 |  0.77
Output  | 2.5054e-05 | 2.5054e-05 | 2.5054e-05 |   0.0 |  0.27
Modify  | 0.00011305 | 0.00011305 | 0.00011305 |   0.0 |  1.23
Other   |            | 2.005e-05  |            |       |  0.22

Nlocal:              8 ave           8 max           8 min
Histogram: 1 0 0 0 0 0 0 0 0 0
Nghost:            335 ave         335 max         335 min
Histogram: 1 0 0 0 0 0 0 0 0 0
Neighs:              0 ave           0 max           0 min
Histogram: 1 0 0 0 0 0 0 0 0 0
FullNghs:          624 ave         624 max         624 min
Histogram: 1 0 0 0 0 0 0 0 0 0

Total # of neighbors = 624
Ave neighs/atom = 78
Neighbor list builds = 0
Dangerous builds = 0
Setting up Verlet run ...
  Unit style    : metal
  Current step  : 10
  Time step     : 0.0005
Per MPI rank memory allocation (min/avg/max) = 11.14 | 11.14 | 11.14 Mbytes
   Step          Temp          E_pair         E_mol          TotEng         Press          Volume    
        10   584.50739      0.081894345    0              0.61076891     73806.343      86.752957    
Loop time of 1.817e-06 on 1 procs for 0 steps with 8 atoms

165.1% CPU use with 1 MPI tasks x no OpenMP threads

MPI task timing breakdown:
Section |  min time  |  avg time  |  max time  |%varavg| %total
---------------------------------------------------------------
Pair    | 0          | 0          | 0          |   0.0 |  0.00
Neigh   | 0          | 0          | 0          |   0.0 |  0.00
Comm    | 0          | 0          | 0          |   0.0 |  0.00
Output  | 0          | 0          | 0          |   0.0 |  0.00
Modify  | 0          | 0          | 0          |   0.0 |  0.00
Other   |            | 1.817e-06  |            |       |100.00

Nlocal:              8 ave           8 max           8 min
Histogram: 1 0 0 0 0 0 0 0 0 0
Nghost:            721 ave         721 max         721 min
Histogram: 1 0 0 0 0 0 0 0 0 0
Neighs:              0 ave           0 max           0 min
Histogram: 1 0 0 0 0 0 0 0 0 0
FullNghs:          688 ave         688 max         688 min
Histogram: 1 0 0 0 0 0 0 0 0 0

Total # of neighbors = 688
Ave neighs/atom = 86
Neighbor list builds = 0
Dangerous builds = 0
Total wall time: 0:00:00
