============================================================
    On-the-fly Machine-Learning Assisted Canonical Sampling
======================= version  0.0.10 =====================
date: 24-10-2022  14:54:52


State 1/1 :
Running Path-Integral Molecular Dynamics, using Lammps with I-Pi
Langevin dynamics in the npt ensemble as implemented in IPI
Number of beads :                     4
Temperature (in Kelvin) :             20
Pressure (GPa) :                      0
Number of MLMD equilibration steps :  10
Number of MLMD production steps :     1000
Timestep (in fs) :                    1.5
Themostat damping parameter (in fs) : 150.0
Barostat damping parameter (in fs) :     300.0


True potential parameters:
Calculator : lammpsrun
parameters :
   keep_tmp_files  True
   tmp_dir  /var/folders/pq/96d2s12s0019zxl0x1w7b3wm0000gn/T/LAMMPS-dalgha2y
   pair_style  tersoff/mod
   pair_coeff  ['* * ../Si.tersoff.mod Si']


Machine-Learning Interatomic Potential parameters
The model used is linear
Cutoff radius:                               5.5
Descriptor
Spectral Neighbor Analysis Potential
2Jmax:                                       6
Energy coefficient                           1.0
Forces coefficient                           1.0
Stress coefficient                           1.0



============================================================
Step 0
Running initial step
There are 1 unique configuration in the states 
