ITEM: TIMESTEP
100
ITEM: NUMBER OF ATOMS
32
ITEM: BOX BOUNDS pp pp pp
0.0000000000000000e+00 7.2199999999999998e+00
0.0000000000000000e+00 7.2199999999999998e+00
0.0000000000000000e+00 7.2199999999999998e+00
ITEM: ATOMS id type xu yu zu vx vy vz fx fy fz element
1 1 0.00848421 -0.00696828 0.0359765 0.620172 -0.496433 -1.74248 -0.746995 -0.949418 -0.411786 Cu
2 1 0.0102463 1.81308 1.80238 1.42947 -4.03713 0.514721 0.21382 -0.507242 0.32249 Cu
3 1 1.85594 0.0259275 1.79796 0.387766 1.60603 1.13304 0.383791 -1.11368 -0.151082 Cu
4 1 1.70892 1.84264 0.0188538 -1.42032 -0.628463 -2.06749 0.0442047 1.32166 0.0562402 Cu
17 1 3.56682 -0.090079 -0.0348855 2.0142 -1.98388 1.37013 1.23215 0.828725 -0.0960571 Cu
18 1 3.71883 1.72507 1.77929 1.95577 0.228494 -0.562731 -0.977109 0.612865 -0.915124 Cu
19 1 5.48365 -0.075721 1.84019 -1.25402 1.77866 2.13169 -1.00848 0.915961 -0.0518528 Cu
20 1 5.40553 1.79378 0.0218687 2.14367 1.13876 0.100912 0.0801556 -0.163208 -2.43032 Cu
9 1 -0.0700818 3.60342 -0.131737 -4.44372 0.590003 -2.84639 1.40433 -0.327712 1.19037 Cu
10 1 0.086565 5.26424 1.74073 1.21401 -2.29312 1.73328 -0.482794 0.397284 0.758504 Cu
11 1 1.81086 3.59674 1.78426 1.12782 -0.657249 1.08698 0.235492 0.185874 1.49234 Cu
12 1 1.79006 5.3389 -0.0849494 -0.323979 0.631403 -0.743102 -1.00541 -0.539774 -0.0977243 Cu
25 1 3.6078 3.63376 -0.0115149 -1.21894 1.25028 -3.88594 -0.167683 -0.581472 -1.13563 Cu
26 1 3.59323 5.4158 1.85129 1.38437 -2.25076 1.22733 -0.664923 0.760877 1.5974 Cu
27 1 5.36421 3.71761 1.72733 -3.12409 3.01922 -1.79486 0.133041 0.49294 0.265394 Cu
28 1 5.3996 5.39082 0.0307765 1.2653 0.48376 -1.50175 -0.393279 -0.230983 -0.534557 Cu
5 1 0.0864583 -0.0866619 3.76895 1.72159 0.379024 1.81426 -1.99746 1.27944 -1.74653 Cu
6 1 -0.0386237 1.77091 5.41372 -2.78073 1.10568 -0.21755 -0.66748 -0.172428 1.61893 Cu
7 1 1.73698 0.110683 5.51702 -1.19746 -1.34123 0.603962 0.909196 -0.18833 -0.327936 Cu
8 1 1.85703 1.7524 3.65792 0.72222 -0.937256 1.49429 -0.742693 1.15348 0.119185 Cu
21 1 3.61604 -0.0149085 3.72457 -1.51631 1.8223 1.88234 -0.541215 -0.156742 -0.117374 Cu
22 1 3.60128 1.79715 5.44895 -0.87987 -0.107936 -0.420745 0.878765 0.601078 -0.544129 Cu
23 1 5.38901 0.0717756 5.42953 -1.61162 2.66878 0.0655397 1.8341 -0.831259 -1.13362 Cu
24 1 5.33376 1.91449 3.58214 -2.1315 1.96934 -0.328159 0.928926 0.0660411 -0.630266 Cu
13 1 -0.0231453 3.60054 3.57938 1.93654 -0.749435 -2.60488 0.874168 -1.17704 -0.484022 Cu
14 1 -0.0632807 5.41832 5.45929 2.88841 -0.453698 0.149751 -0.161568 -1.19991 0.48908 Cu
15 1 1.85619 3.68177 5.37545 2.20614 -1.67519 -0.614911 0.0795734 -1.17427 0.977228 Cu
16 1 1.78085 5.45168 3.68586 0.466313 1.23823 1.55312 0.462024 0.00761352 0.704508 Cu
29 1 3.62833 3.56246 3.58208 -1.2591 -1.2912 -2.55462 0.427496 1.81605 -1.08097 Cu
30 1 3.65306 5.475 5.44465 -4.00915 1.3635 2.46319 0.0667091 -0.805371 -0.706322 Cu
31 1 5.371 3.62632 5.30899 -0.25926 0.773655 0.763591 0.78847 -0.00179936 1.3065 Cu
32 1 5.51438 5.51904 3.49369 -0.731493 -0.124837 -2.37077 -1.21648 -0.450173 1.87787 Cu
