(written by ASE)

5 atoms
3 atom types

0.0                      10  xlo xhi
0.0                      10  ylo yhi
0.0                      10  zlo zhi

Atoms # atomic

     1   3                       0                       0                       0
     2   1                    0.63                    0.63                    0.63
     3   1                   -0.63                   -0.63                    0.63
     4   1                    0.63                   -0.63                   -0.63
     5   1                   -0.63                    0.63                   -0.63


Velocities

     1                       0                       0                       0
     2                       0                       0                       0
     3                       0                       0                       0
     4                       0                       0                       0
     5                       0                       0                       0
