LAMMPS (2 Aug 2023 - Update 3)
Reading data file ...
  orthogonal box = (0 0 0) to (10 10 10)
  1 by 1 by 1 MPI processor grid
  reading atoms ...
  5 atoms
  reading velocities ...
  5 velocities
  read_data CPU = 0.000 seconds
1 atoms in group C
ACE version: 2022.6.27
Recursive evaluator is used
Loading /home/nadeauo/software/mlacs/test/unit_test/mlip/ACE/ACE.yace
Total number of basis functions
	C: 45 (r=1) 625 (r>1)
	H: 45 (r=1) 625 (r>1)
	O: 45 (r=1) 625 (r>1)
Mapping LAMMPS atom type #1(H) -> ACE species type #1
Mapping LAMMPS atom type #2(O) -> ACE species type #2
Mapping LAMMPS atom type #3(C) -> ACE species type #0
Neighbor list info ...
  update: every = 1 steps, delay = 0 steps, check = yes
  max neighbors/atom: 2000, page size: 100000
  master list distance cutoff = 7
  ghost atom cutoff = 7
  binsize = 3.5, bins = 3 3 3
  1 neighbor lists, perpetual/occasional/extra = 1 0 0
  (1) pair pace, perpetual
      attributes: full, newton on
      pair build: full/bin/atomonly
      stencil: full/bin/3d
      bin: standard
Setting up Verlet run ...
  Unit style    : metal
  Current step  : 0
  Time step     : 1e-05
Per MPI rank memory allocation (min/avg/max) = 4.183 | 4.183 | 4.183 Mbytes
   Step          Temp          E_pair         E_mol          TotEng         Press     
         0   0.51165374    -21.533155      0             -21.532891      409.62628    
         5   18.173053     -21.533161      0             -21.523765      418.38018    
Loop time of 0.000287823 on 1 procs for 5 steps with 5 atoms

Performance: 15.009 ns/day, 1.599 hours/ns, 17371.788 timesteps/s, 86.859 katom-step/s
87.2% CPU use with 1 MPI tasks x no OpenMP threads

MPI task timing breakdown:
Section |  min time  |  avg time  |  max time  |%varavg| %total
---------------------------------------------------------------
Pair    | 0.00027587 | 0.00027587 | 0.00027587 |   0.0 | 95.85
Neigh   | 0          | 0          | 0          |   0.0 |  0.00
Comm    | 1.724e-06  | 1.724e-06  | 1.724e-06  |   0.0 |  0.60
Output  | 2.742e-06  | 2.742e-06  | 2.742e-06  |   0.0 |  0.95
Modify  | 5.785e-06  | 5.785e-06  | 5.785e-06  |   0.0 |  2.01
Other   |            | 1.706e-06  |            |       |  0.59

Nlocal:              5 ave           5 max           5 min
Histogram: 1 0 0 0 0 0 0 0 0 0
Nghost:             35 ave          35 max          35 min
Histogram: 1 0 0 0 0 0 0 0 0 0
Neighs:              0 ave           0 max           0 min
Histogram: 1 0 0 0 0 0 0 0 0 0
FullNghs:           20 ave          20 max          20 min
Histogram: 1 0 0 0 0 0 0 0 0 0

Total # of neighbors = 20
Ave neighs/atom = 4
Neighbor list builds = 0
Dangerous builds = 0
Setting up Verlet run ...
  Unit style    : metal
  Current step  : 5
  Time step     : 1e-05
Per MPI rank memory allocation (min/avg/max) = 4.183 | 4.183 | 4.183 Mbytes
   Step          Temp          E_pair         E_mol          TotEng         Press     
         5   20.126772     -21.533161      0             -21.522755      419.45914    
Loop time of 4.01e-07 on 1 procs for 0 steps with 5 atoms

249.4% CPU use with 1 MPI tasks x no OpenMP threads

MPI task timing breakdown:
Section |  min time  |  avg time  |  max time  |%varavg| %total
---------------------------------------------------------------
Pair    | 0          | 0          | 0          |   0.0 |  0.00
Neigh   | 0          | 0          | 0          |   0.0 |  0.00
Comm    | 0          | 0          | 0          |   0.0 |  0.00
Output  | 0          | 0          | 0          |   0.0 |  0.00
Modify  | 0          | 0          | 0          |   0.0 |  0.00
Other   |            | 4.01e-07   |            |       |100.00

Nlocal:              5 ave           5 max           5 min
Histogram: 1 0 0 0 0 0 0 0 0 0
Nghost:             35 ave          35 max          35 min
Histogram: 1 0 0 0 0 0 0 0 0 0
Neighs:              0 ave           0 max           0 min
Histogram: 1 0 0 0 0 0 0 0 0 0
FullNghs:           20 ave          20 max          20 min
Histogram: 1 0 0 0 0 0 0 0 0 0

Total # of neighbors = 20
Ave neighs/atom = 4
Neighbor list builds = 0
Dangerous builds = 0
Total wall time: 0:00:00
