#/Users/oliviernadeau/Software/otf_mlacs/examples/MolecularDynamics/Trajectory/atoms.in (written by MLACS)

107 atoms
1 atom types
0 10.83 xlo xhi
0 10.83 ylo yhi
0 10.83 zlo zhi

Atoms

     1   1  -0.00000030   0.91224336   0.91224336 
     2   1   1.89483963  -0.01590046   1.84050052 
     3   1   1.89483963   1.84050052  -0.01590046 
     4   1  -0.00000001   0.05228503   3.55355656 
     5   1  -0.00000000   1.81297078   5.42393298 
     6   1   1.79314945   0.01328131   5.41216786 
     7   1   1.81061733   1.81580824   3.60763486 
     8   1  -0.00000000   0.01162846   7.23066669 
     9   1  -0.00000001   1.77231318   9.10104415 
    10   1   1.81061820   0.00878929   9.04696385 
    11   1   1.79314906   1.81131960   7.24243327 
    12   1  -0.00000001   3.55355656   0.05228503 
    13   1  -0.00000000   5.42393298   1.81297078 
    14   1   1.81061733   3.60763486   1.81580824 
    15   1   1.79314945   5.41216786   0.01328131 
    16   1  -0.00000000   3.59358846   3.59358846 
    17   1  -0.00000000   5.41617559   5.41617559 
    18   1   1.79665185   3.61470646   5.42299206 
    19   1   1.79665185   5.42299206   3.61470646 
    20   1  -0.00000001   3.60439653   7.24695086 
    21   1  -0.00000001   5.40764900   9.05020493 
    22   1   1.80496870   3.61991038   9.03469014 
    23   1   1.79571353   5.42435672   7.23024394 
    24   1  -0.00000000   7.23066669   0.01162846 
    25   1  -0.00000001   9.10104415   1.77231318 
    26   1   1.79314906   7.24243327   1.81131960 
    27   1   1.81061820   9.04696385   0.00878929 
    28   1  -0.00000001   7.24695086   3.60439653 
    29   1  -0.00000001   9.05020493   5.40764900 
    30   1   1.79571353   7.23024394   5.42435672 
    31   1   1.80496870   9.03469014   3.61991038 
    32   1  -0.00000000   7.23842393   7.23842393 
    33   1  -0.00000000   9.06100425   9.06100425 
    34   1   1.79665346   7.23160764   9.03989373 
    35   1   1.79665346   9.03989373   7.23160764 
    36   1   3.62463411   0.00712117   0.00712117 
    37   1   3.62463484   1.81747933   1.81747933 
    38   1   5.41500002   0.00543971   1.81916131 
    39   1   5.41500002   1.81916131   0.00543971 
    40   1   3.61961691   0.00601573   3.62943439 
    41   1   3.59789964   1.81493468   5.42378707 
    42   1   5.41500002   0.00978639   5.43247050 
    43   1   5.41500002   1.81694957   3.62768556 
    44   1   3.59790001   0.00966692   7.23081416 
    45   1   3.61961632   1.81858539   9.02516712 
    46   1   5.41500002   0.00765207   9.02691605 
    47   1   5.41500002   1.81481571   7.22213137 
    48   1   3.61961691   3.62943439   0.00601573 
    49   1   3.59789964   5.42378707   1.81493468 
    50   1   5.41500002   3.62768556   1.81694957 
    51   1   5.41500002   5.43247050   0.00978639 
    52   1   3.60889575   3.62183700   3.62183700 
    53   1   3.60345496   5.42469000   5.42469000 
    54   1   5.41500000   3.62061392   5.42572589 
    55   1   5.41500000   5.42572589   3.62061392 
    56   1   3.60485412   3.62104117   7.22603335 
    57   1   3.60485455   5.42856762   9.03356018 
    58   1   5.41500001   3.62689872   9.02770268 
    59   1   5.41500000   5.42676576   7.22783529 
    60   1   3.59790001   7.23081416   0.00966692 
    61   1   3.61961632   9.02516712   1.81858539 
    62   1   5.41500002   7.22213137   1.81481571 
    63   1   5.41500002   9.02691605   0.00765207 
    64   1   3.60485412   7.22603335   3.62104117 
    65   1   3.60485455   9.03356018   5.42856762 
    66   1   5.41500000   7.22783529   5.42676576 
    67   1   5.41500001   9.02770268   3.62689872 
    68   1   3.60345564   7.22991063   7.22991063 
    69   1   3.60889719   9.03276327   9.03276327 
    70   1   5.41500000   7.22887509   9.03398762 
    71   1   5.41500000   9.03398762   7.22887509 
    72   1   7.20536582   0.00712115   0.00712115 
    73   1   7.20536509   1.81747935   1.81747935 
    74   1   8.93516063  -0.01590033   1.84050039 
    75   1   8.93516063   1.84050039  -0.01590033 
    76   1   7.21038302   0.00601574   3.62943445 
    77   1   7.23210034   1.81493467   5.42378706 
    78   1   9.03685056   0.01328131   5.41216786 
    79   1   9.01938268   1.81580824   3.60763489 
    80   1   7.23209998   0.00966693   7.23081417 
    81   1   7.21038362   1.81858538   9.02516706 
    82   1   9.01938181   0.00878929   9.04696383 
    83   1   9.03685094   1.81131960   7.24243328 
    84   1   7.21038302   3.62943445   0.00601574 
    85   1   7.23210034   5.42378706   1.81493467 
    86   1   9.01938268   3.60763489   1.81580824 
    87   1   9.03685056   5.41216786   0.01328131 
    88   1   7.22110424   3.62183699   3.62183699 
    89   1   7.22654504   5.42469000   5.42469000 
    90   1   9.03334816   3.61470646   5.42299206 
    91   1   9.03334816   5.42299206   3.61470646 
    92   1   7.22514587   3.62104117   7.22603336 
    93   1   7.22514545   5.42856761   9.03356018 
    94   1   9.02503133   3.61991042   9.03469010 
    95   1   9.03428647   5.42435671   7.23024395 
    96   1   7.23209998   7.23081417   0.00966693 
    97   1   7.21038362   9.02516706   1.81858538 
    98   1   9.03685094   7.24243328   1.81131960 
    99   1   9.01938181   9.04696383   0.00878929 
   100   1   7.22514587   7.22603336   3.62104117 
   101   1   7.22514545   9.03356018   5.42856761 
   102   1   9.03428647   7.23024395   5.42435671 
   103   1   9.02503133   9.03469010   3.61991042 
   104   1   7.22654435   7.22991063   7.22991063 
   105   1   7.22110280   9.03276328   9.03276328 
   106   1   9.03334655   7.23160764   9.03989373 
   107   1   9.03334655   9.03989373   7.23160764 

PafiPath

     1  -0.00000030   0.91224336   0.91224336  -0.00004118   0.70185894   0.70185894   0.00024344   0.64271592   0.64271592 
     2   1.89483963  -0.01590046   1.84050052  -0.00748702  -0.01679864  -0.02488629   0.32543025  -0.06930917   0.13748134 
     3   1.89483963   1.84050052  -0.01590046  -0.00748702  -0.02488629  -0.01679864   0.32543025   0.13748134  -0.06930917 
     4  -0.00000001   0.05228503   3.55355656  -0.00000159  -0.00779568  -0.00003040   0.00000882   0.46434282  -0.45706829 
     5  -0.00000000   1.81297078   5.42393298  -0.00000064  -0.00220034  -0.00784007   0.00000367   0.05688561   0.05645361 
     6   1.79314945   0.01328131   5.41216786   0.00074985  -0.00398925  -0.00590375  -0.08368055   0.03308398  -0.04415561 
     7   1.81061733   1.81580824   3.60763486  -0.00377725  -0.00487596  -0.01045837   0.33054398   0.17313628   0.27476074 
     8  -0.00000000   0.01162846   7.23066669  -0.00000065  -0.00254020  -0.00723911   0.00000395   0.04026210   0.03957026 
     9  -0.00000001   1.77231318   9.10104415  -0.00000142  -0.00948639  -0.00447512   0.00000869  -0.31816290   0.47300529 
    10   1.81061820   0.00878929   9.04696385   0.01287238  -0.00740819  -0.01883487   0.32624608  -0.02339342  -0.17711072 
    11   1.79314906   1.81131960   7.24243327   0.00009184  -0.00381828  -0.00714757  -0.06851169   0.02485559   0.08656873 
    12  -0.00000001   3.55355656   0.05228503  -0.00000159  -0.00003040  -0.00779568   0.00000882  -0.45706829   0.46434282 
    13  -0.00000000   5.42393298   1.81297078  -0.00000064  -0.00784007  -0.00220034   0.00000367   0.05645361   0.05688561 
    14   1.81061733   3.60763486   1.81580824  -0.00377725  -0.01045837  -0.00487596   0.33054398   0.27476074   0.17313628 
    15   1.79314945   5.41216786   0.01328131   0.00074985  -0.00590375  -0.00398925  -0.08368055  -0.04415561   0.03308398 
    16  -0.00000000   3.59358846   3.59358846  -0.00000046  -0.00223971  -0.00223971   0.00000280  -0.02103631  -0.02103631 
    17  -0.00000000   5.41617559   5.41617559  -0.00000020  -0.00501617  -0.00501617   0.00000123   0.02039511   0.02039511 
    18   1.79665185   3.61470646   5.42299206   0.00096725  -0.00504959  -0.00637633  -0.01050462   0.05527385   0.07370266 
    19   1.79665185   5.42299206   3.61470646   0.00096725  -0.00637633  -0.00504959  -0.01050462   0.07370266   0.05527385 
    20  -0.00000001   3.60439653   7.24695086  -0.00000148  -0.00872998  -0.00193983   0.00000877  -0.07174892   0.16013283 
    21  -0.00000001   5.40764900   9.05020493  -0.00000149  -0.00211991  -0.00822135   0.00000881  -0.08356357   0.11938592 
    22   1.80496870   3.61991038   9.03469014  -0.00103854  -0.00583501  -0.00291704  -0.01556153   0.01298222   0.05369213 
    23   1.79571353   5.42435672   7.23024394  -0.00077948  -0.00614694  -0.00558454  -0.04804036   0.01993507   0.04085558 
    24  -0.00000000   7.23066669   0.01162846  -0.00000065  -0.00723911  -0.00254020   0.00000395   0.03957026   0.04026210 
    25  -0.00000001   9.10104415   1.77231318  -0.00000142  -0.00447512  -0.00948639   0.00000869   0.47300529  -0.31816290 
    26   1.79314906   7.24243327   1.81131960   0.00009184  -0.00714757  -0.00381828  -0.06851169   0.08656873   0.02485559 
    27   1.81061820   9.04696385   0.00878929   0.01287238  -0.01883487  -0.00740819   0.32624608  -0.17711072  -0.02339342 
    28  -0.00000001   7.24695086   3.60439653  -0.00000148  -0.00193983  -0.00872998   0.00000877   0.16013283  -0.07174892 
    29  -0.00000001   9.05020493   5.40764900  -0.00000149  -0.00822135  -0.00211991   0.00000881   0.11938592  -0.08356357 
    30   1.79571353   7.23024394   5.42435672  -0.00077948  -0.00558454  -0.00614694  -0.04804036   0.04085558   0.01993507 
    31   1.80496870   9.03469014   3.61991038  -0.00103854  -0.00291704  -0.00583501  -0.01556153   0.05369213   0.01298222 
    32  -0.00000000   7.23842393   7.23842393  -0.00000019  -0.00386198  -0.00386198   0.00000109   0.07925491   0.07925491 
    33  -0.00000000   9.06100425   9.06100425  -0.00000053   0.00814400   0.00814400   0.00000308   0.36672726   0.36672726 
    34   1.79665346   7.23160764   9.03989373  -0.00203285  -0.00667497  -0.00671536  -0.05753142   0.01117073   0.01309364 
    35   1.79665346   9.03989373   7.23160764  -0.00203285  -0.00671536  -0.00667497  -0.05753142   0.01309364   0.01117073 
    36   3.62463411   0.00712117   0.00712117   0.00851192  -0.00943195  -0.00943195  -0.06604368   0.02480957   0.02480957 
    37   3.62463484   1.81747933   1.81747933  -0.00810175  -0.00901978  -0.00901978  -0.08902248   0.03250986   0.03250986 
    38   5.41500002   0.00543971   1.81916131   0.00000219  -0.00387774  -0.00428017  -0.00001289   0.04281511   0.00772989 
    39   5.41500002   1.81916131   0.00543971   0.00000219  -0.00428017  -0.00387774  -0.00001289   0.00772989   0.04281511 
    40   3.61961691   0.00601573   3.62943439  -0.00597140  -0.00361642  -0.01064002   0.01975533  -0.00133084   0.03801308 
    41   3.59789964   1.81493468   5.42378707   0.00008255  -0.00400380  -0.00733684   0.00217413   0.02879390   0.07036392 
    42   5.41500002   0.00978639   5.43247050   0.00000221  -0.00392638  -0.01045561  -0.00001307   0.01822411  -0.00180081 
    43   5.41500002   1.81694957   3.62768556   0.00000261  -0.00512703  -0.00889590  -0.00001542   0.02014685   0.01142575 
    44   3.59790001   0.00966692   7.23081416   0.00282503  -0.00473441  -0.00998182   0.00466702   0.01314010  -0.04083437 
    45   3.61961632   1.81858539   9.02516712   0.00531909  -0.00374495  -0.00908851   0.03925411   0.05777744  -0.00306694 
    46   5.41500002   0.00765207   9.02691605   0.00000266  -0.00541237  -0.00939872  -0.00001562   0.01833400   0.01828356 
    47   5.41500002   1.81481571   7.22213137   0.00000225  -0.00340584  -0.00872057  -0.00001328   0.01651756   0.02170473 
    48   3.61961691   3.62943439   0.00601573  -0.00597140  -0.01064002  -0.00361642   0.01975533   0.03801308  -0.00133084 
    49   3.59789964   5.42378707   1.81493468   0.00008255  -0.00733684  -0.00400380   0.00217413   0.07036392   0.02879390 
    50   5.41500002   3.62768556   1.81694957   0.00000261  -0.00889590  -0.00512703  -0.00001542   0.01142575   0.02014685 
    51   5.41500002   5.43247050   0.00978639   0.00000221  -0.01045561  -0.00392638  -0.00001307  -0.00180081   0.01822411 
    52   3.60889575   3.62183700   3.62183700  -0.00021941  -0.00546940  -0.00546940   0.10335666   0.09192803   0.09192803 
    53   3.60345496   5.42469000   5.42469000   0.00006011  -0.00474218  -0.00474218  -0.01336487   0.04659568   0.04659568 
    54   5.41500000   3.62061392   5.42572589   0.00000015  -0.00444534  -0.00577933  -0.00000094   0.03089978   0.06505506 
    55   5.41500000   5.42572589   3.62061392   0.00000015  -0.00577933  -0.00444534  -0.00000094   0.06505506   0.03089978 
    56   3.60485412   3.62104117   7.22603335  -0.00036832  -0.00408723  -0.00522841  -0.02134987   0.02904077   0.03392562 
    57   3.60485455   5.42856762   9.03356018  -0.00094115  -0.00657732  -0.00444942  -0.03310080   0.01651786   0.01775495 
    58   5.41500001   3.62689872   9.02770268   0.00000177  -0.00391483  -0.00368026  -0.00001048   0.03492296   0.01154984 
    59   5.41500000   5.42676576   7.22783529   0.00000029  -0.00509490  -0.00483365  -0.00000171   0.02289804   0.02657139 
    60   3.59790001   7.23081416   0.00966692   0.00282503  -0.00998182  -0.00473441   0.00466702  -0.04083437   0.01314010 
    61   3.61961632   9.02516712   1.81858539   0.00531909  -0.00908851  -0.00374495   0.03925411  -0.00306694   0.05777744 
    62   5.41500002   7.22213137   1.81481571   0.00000225  -0.00872057  -0.00340584  -0.00001328   0.02170473   0.01651756 
    63   5.41500002   9.02691605   0.00765207   0.00000266  -0.00939872  -0.00541237  -0.00001562   0.01828356   0.01833400 
    64   3.60485412   7.22603335   3.62104117  -0.00036832  -0.00522841  -0.00408723  -0.02134987   0.03392562   0.02904077 
    65   3.60485455   9.03356018   5.42856762  -0.00094115  -0.00444942  -0.00657732  -0.03310080   0.01775495   0.01651786 
    66   5.41500000   7.22783529   5.42676576   0.00000029  -0.00483365  -0.00509490  -0.00000171   0.02657139   0.02289804 
    67   5.41500001   9.02770268   3.62689872   0.00000177  -0.00368026  -0.00391483  -0.00001048   0.01154984   0.03492296 
    68   3.60345564   7.22991063   7.22991063  -0.00094081  -0.00578760  -0.00578760  -0.02961973   0.01152436   0.01152436 
    69   3.60889719   9.03276327   9.03276327   0.00402872  -0.00804140  -0.00804140   0.07327363  -0.02789833  -0.02789833 
    70   5.41500000   7.22887509   9.03398762   0.00000014  -0.00832811  -0.00588557  -0.00000083  -0.01978449   0.00726969 
    71   5.41500000   9.03398762   7.22887509   0.00000014  -0.00588557  -0.00832811  -0.00000083   0.00726969  -0.01978449 
    72   7.20536582   0.00712115   0.00712115  -0.00852104  -0.00943448  -0.00943448   0.06609701   0.02482423   0.02482423 
    73   7.20536509   1.81747935   1.81747935   0.00809287  -0.00901734  -0.00901734   0.08907498   0.03249533   0.03249533 
    74   8.93516063  -0.01590033   1.84050039   0.00752392  -0.01678009  -0.02490396  -0.32564774  -0.06941746   0.13758691 
    75   8.93516063   1.84050039  -0.01590033   0.00752392  -0.02490396  -0.01678009  -0.32564774   0.13758691  -0.06941746 
    76   7.21038302   0.00601574   3.62943445   0.00596189  -0.00361391  -0.01063161  -0.01969903  -0.00134562   0.03796345 
    77   7.23210034   1.81493467   5.42378706  -0.00008434  -0.00400532  -0.00733839  -0.00216331   0.02880289   0.07037290 
    78   9.03685056   0.01328131   5.41216786  -0.00074877  -0.00398950  -0.00590506   0.08367424   0.03308562  -0.04414802 
    79   9.01938268   1.81580824   3.60763489   0.00377883  -0.00487544  -0.01045448  -0.33055378   0.17313295   0.27473902 
    80   7.23209998   0.00966693   7.23081417  -0.00282683  -0.00473287  -0.00998024  -0.00465653   0.01313097  -0.04084380 
    81   7.21038362   1.81858538   9.02516706  -0.00532877  -0.00374744  -0.00909706  -0.03919725   0.05779223  -0.00301676 
    82   9.01938181   0.00878929   9.04696383  -0.01287081  -0.00740899  -0.01883887  -0.32625505  -0.02338871  -0.17708622 
    83   9.03685094   1.81131960   7.24243328  -0.00009081  -0.00381803  -0.00714629   0.06850550   0.02485417   0.08656108 
    84   7.21038302   3.62943445   0.00601574   0.00596189  -0.01063161  -0.00361391  -0.01969903   0.03796345  -0.00134562 
    85   7.23210034   5.42378706   1.81493467  -0.00008434  -0.00733839  -0.00400532  -0.00216331   0.07037290   0.02880289 
    86   9.01938268   3.60763489   1.81580824   0.00377883  -0.01045448  -0.00487544  -0.33055378   0.27473902   0.17313295 
    87   9.03685056   5.41216786   0.01328131  -0.00074877  -0.00590506  -0.00398950   0.08367424  -0.04414802   0.03308562 
    88   7.22110424   3.62183699   3.62183699   0.00021784  -0.00547034  -0.00547034  -0.10334729   0.09193357   0.09193357 
    89   7.22654504   5.42469000   5.42469000  -0.00006108  -0.00474206  -0.00474206   0.01337061   0.04659498   0.04659498 
    90   9.03334816   3.61470646   5.42299206  -0.00096575  -0.00504964  -0.00637653   0.01049574   0.05527399   0.07370373 
    91   9.03334816   5.42299206   3.61470646  -0.00096575  -0.00637653  -0.00504964   0.01049574   0.07370373   0.05527399 
    92   7.22514587   3.62104117   7.22603336   0.00036737  -0.00408772  -0.00522694   0.02135552   0.02904357   0.03391703 
    93   7.22514545   5.42856761   9.03356018   0.00094020  -0.00657879  -0.00444896   0.03310640   0.01652654   0.01775225 
    94   9.02503133   3.61991042   9.03469010   0.00104272  -0.00582944  -0.00292256   0.01553689   0.01294934   0.05372476 
    95   9.03428647   5.42435671   7.23024395   0.00078061  -0.00614842  -0.00558306   0.04803369   0.01994391   0.04084689 
    96   7.23209998   7.23081417   0.00966693  -0.00282683  -0.00998024  -0.00473287  -0.00465653  -0.04084380   0.01313097 
    97   7.21038362   9.02516706   1.81858538  -0.00532877  -0.00909706  -0.00374744  -0.03919725  -0.00301676   0.05779223 
    98   9.03685094   7.24243328   1.81131960  -0.00009081  -0.00714629  -0.00381803   0.06850550   0.08656108   0.02485417 
    99   9.01938181   9.04696383   0.00878929  -0.01287081  -0.01883887  -0.00740899  -0.32625505  -0.17708622  -0.02338871 
   100   7.22514587   7.22603336   3.62104117   0.00036737  -0.00522694  -0.00408772   0.02135552   0.03391703   0.02904357 
   101   7.22514545   9.03356018   5.42856761   0.00094020  -0.00444896  -0.00657879   0.03310640   0.01775225   0.01652654 
   102   9.03428647   7.23024395   5.42435671   0.00078061  -0.00558306  -0.00614842   0.04803369   0.04084689   0.01994391 
   103   9.02503133   9.03469010   3.61991042   0.00104272  -0.00292256  -0.00582944   0.01553689   0.05372476   0.01294934 
   104   7.22654435   7.22991063   7.22991063   0.00093983  -0.00578773  -0.00578773   0.02962557   0.01152515   0.01152515 
   105   7.22110280   9.03276328   9.03276328  -0.00403025  -0.00804041  -0.00804041  -0.07326466  -0.02790414  -0.02790414 
   106   9.03334655   7.23160764   9.03989373   0.00203435  -0.00667474  -0.00671528   0.05752247   0.01116930   0.01309296 
   107   9.03334655   9.03989373   7.23160764   0.00203435  -0.00671528  -0.00667474   0.05752247   0.01309296   0.01116930 
