ITEM: TIMESTEP
100
ITEM: NUMBER OF ATOMS
107
ITEM: BOX BOUNDS pp pp pp
0.0000000000000000e+00 1.0830000000000000e+01
0.0000000000000000e+00 1.0830000000000000e+01
0.0000000000000000e+00 1.0830000000000000e+01
ITEM: ATOMS id type xu yu zu vx vy vz fx fy fz element
1 1 0.00512562 0.898152 0.926663 0 0 0 -0.0962619 2.05763 -1.99078 Cu
2 1 1.9214 -0.0118518 1.83778 0 0 0 1.45517 -2.82859 1.80442 Cu
3 1 1.89864 1.85107 -0.019279 0 0 0 -1.60646 1.77008 -0.315139 Cu
4 1 0.00157492 0.0431041 3.54641 0 0 0 1.32304 2.43 0.748808 Cu
5 1 0.00540759 1.80668 5.42232 0 0 0 0.277856 -0.194017 -0.44053 Cu
6 1 1.79106 0.0161267 5.39983 0 0 0 0.972294 -0.362131 -1.78377 Cu
7 1 1.80783 1.8123 3.61172 0 0 0 2.40429 -0.300644 1.03642 Cu
8 1 0.00856702 0.0131195 7.23665 0 0 0 2.37534 0.43392 -1.07405 Cu
9 1 -0.00461883 1.77371 9.10701 0 0 0 -0.0477765 -1.78264 2.4917 Cu
10 1 1.82525 0.0160237 9.05688 0 0 0 0.340495 -0.554012 0.408307 Cu
11 1 1.79864 1.80561 7.2425 0 0 0 -0.408126 -1.91976 -2.17244 Cu
12 1 -0.0051937 3.54659 0.0532387 0 0 0 -0.254907 -1.30451 -1.7023 Cu
13 1 0.010689 5.42462 1.82554 0 0 0 -2.22369 0.936577 1.20818 Cu
14 1 1.80761 3.59872 1.80655 0 0 0 1.02667 -2.39549 1.44646 Cu
15 1 1.78251 5.40985 0.00849185 0 0 0 -1.98839 -1.73996 0.33686 Cu
16 1 -0.00357604 3.56599 3.58827 0 0 0 1.06821 2.58615 2.21512 Cu
17 1 0.0041022 5.4185 5.41835 0 0 0 -2.12381 2.35414 -0.347924 Cu
18 1 1.79618 3.613 5.41564 0 0 0 -1.2927 -0.533154 -0.146407 Cu
19 1 1.79129 5.4246 3.60208 0 0 0 -0.764023 -2.49305 -2.30992 Cu
20 1 -0.00356996 3.59213 7.2307 0 0 0 -2.31627 1.25925 -1.84501 Cu
21 1 0.00562677 5.41019 9.05056 0 0 0 -1.99607 0.567759 0.218235 Cu
22 1 1.80163 3.62122 9.02943 0 0 0 -1.70252 2.02667 0.602625 Cu
23 1 1.78372 5.44062 7.2277 0 0 0 -0.633677 -1.67714 2.48562 Cu
24 1 -0.00997339 7.24036 0.0292724 0 0 0 2.5454 1.8576 -0.231907 Cu
25 1 -0.00095586 9.11069 1.77006 0 0 0 0.688194 1.38316 2.33802 Cu
26 1 1.80559 7.25278 1.81637 0 0 0 1.51189 1.23945 0.944467 Cu
27 1 1.79308 9.05341 0.0132511 0 0 0 -1.31618 -0.114373 -1.24058 Cu
28 1 -0.00977903 7.25221 3.58319 0 0 0 -0.222458 0.0463072 -2.41952 Cu
29 1 -0.00577643 9.04206 5.4067 0 0 0 0.0876605 1.59106 -2.24811 Cu
30 1 1.78093 7.22469 5.42569 0 0 0 1.17474 2.45101 -1.262 Cu
31 1 1.80555 9.02598 3.63317 0 0 0 2.35034 -2.40041 -2.59972 Cu
32 1 0.000537609 7.26528 7.24843 0 0 0 1.4528 -0.221077 2.31518 Cu
33 1 0.00837807 9.07762 9.07362 0 0 0 -1.95557 0.195626 -0.147158 Cu
34 1 1.79422 7.2355 9.03388 0 0 0 -0.958312 1.93402 1.88312 Cu
35 1 1.79461 9.0419 7.24657 0 0 0 -3.08018 -2.47806 -0.402036 Cu
36 1 3.62811 0.0273091 -0.00685233 0 0 0 -1.5209 -3.0816 0.194272 Cu
37 1 3.63058 1.81497 1.83298 0 0 0 0.578268 -1.54005 0.574812 Cu
38 1 5.42651 0.0169839 1.81325 0 0 0 -1.05418 2.46274 -0.54045 Cu
39 1 5.41243 1.81752 0.0195428 0 0 0 -1.53858 0.403447 2.70244 Cu
40 1 3.61481 0.00711343 3.62841 0 0 0 -2.15303 0.802953 -0.33338 Cu
41 1 3.59248 1.7983 5.40727 0 0 0 2.03714 -0.367888 -1.44744 Cu
42 1 5.4428 0.0271537 5.42851 0 0 0 0.673384 1.17353 -2.68564 Cu
43 1 5.40322 1.81317 3.63462 0 0 0 1.91355 0.358723 -1.30759 Cu
44 1 3.59501 0.00623341 7.21837 0 0 0 -0.998714 2.19119 -1.63401 Cu
45 1 3.63393 1.82456 9.02839 0 0 0 0.419515 0.675573 0.778076 Cu
46 1 5.40881 0.0205104 9.04109 0 0 0 2.23067 -1.07424 1.3211 Cu
47 1 5.42138 1.81821 7.20293 0 0 0 -3.10081 -1.66549 -1.39058 Cu
48 1 3.61163 3.63558 0.00560998 0 0 0 1.47779 2.27484 -1.84066 Cu
49 1 3.61508 5.41122 1.82109 0 0 0 1.21482 -2.69467 1.59075 Cu
50 1 5.40134 3.63245 1.79848 0 0 0 1.88298 2.2589 -2.39162 Cu
51 1 5.40846 5.43203 -0.013335 0 0 0 -0.915495 -1.45271 0.948331 Cu
52 1 3.60842 3.6193 3.62266 0 0 0 0.0644787 0.612735 1.97519 Cu
53 1 3.59049 5.41717 5.41643 0 0 0 -1.89739 1.11472 -0.852961 Cu
54 1 5.40175 3.61695 5.42956 0 0 0 1.64978 -0.943976 1.02965 Cu
55 1 5.42799 5.42005 3.62916 0 0 0 1.10194 0.138487 0.139973 Cu
56 1 3.5852 3.60968 7.22246 0 0 0 -1.95805 1.23985 -2.62278 Cu
57 1 3.60787 5.43685 9.03753 0 0 0 1.23315 -2.75362 -1.8676 Cu
58 1 5.425 3.61092 9.02305 0 0 0 -0.428496 1.31616 -2.10644 Cu
59 1 5.40582 5.42492 7.23462 0 0 0 1.76324 1.7339 -1.37984 Cu
60 1 3.59682 7.20598 0.0120647 0 0 0 1.54314 -0.638821 -2.51611 Cu
61 1 3.61258 9.01745 1.82021 0 0 0 2.14473 1.90499 -0.546986 Cu
62 1 5.41601 7.21396 1.82084 0 0 0 1.48681 -2.29097 -0.888979 Cu
63 1 5.43581 9.025 0.0105837 0 0 0 -2.3793 -1.03419 0.728936 Cu
64 1 3.61353 7.20011 3.62915 0 0 0 0.762786 -0.179385 2.54136 Cu
65 1 3.58432 9.02054 5.43118 0 0 0 -1.23044 0.581257 -2.67159 Cu
66 1 5.41237 7.2282 5.43497 0 0 0 -1.51657 2.25906 1.94671 Cu
67 1 5.41698 9.02951 3.63549 0 0 0 -0.00733076 1.1973 2.2831 Cu
68 1 3.59918 7.22003 7.20761 0 0 0 2.38576 -2.6346 -2.1362 Cu
69 1 3.60104 9.01748 9.03179 0 0 0 0.848128 -2.09685 1.37599 Cu
70 1 5.40589 7.22847 9.03719 0 0 0 1.53879 -2.20949 1.06986 Cu
71 1 5.42363 9.04488 7.23003 0 0 0 2.1813 1.69633 2.14028 Cu
72 1 7.21596 0.0194657 0.0130411 0 0 0 1.80386 0.227913 2.77517 Cu
73 1 7.2121 1.82604 1.83629 0 0 0 1.20792 -0.209701 -2.04065 Cu
74 1 8.93237 -0.0184037 1.8483 0 0 0 -0.0014138 -0.466734 0.442919 Cu
75 1 8.94547 1.83722 -0.050191 0 0 0 -1.96252 1.67094 0.108144 Cu
76 1 7.22526 0.0069041 3.61988 0 0 0 -1.79788 0.156384 -2.1821 Cu
77 1 7.22248 1.83531 5.4428 0 0 0 0.121397 1.76212 -1.15164 Cu
78 1 9.03763 0.0123908 5.42278 0 0 0 -2.6342 1.11874 -0.690793 Cu
79 1 9.03269 1.80523 3.61548 0 0 0 -2.40842 2.01721 -0.231168 Cu
80 1 7.23884 0.00271972 7.24509 0 0 0 -1.56557 2.29179 2.10207 Cu
81 1 7.20213 1.80338 9.02996 0 0 0 -0.366165 -1.09868 -0.976856 Cu
82 1 9.04147 0.00575311 9.06601 0 0 0 -1.63474 2.66532 -0.441569 Cu
83 1 9.03215 1.81885 7.22868 0 0 0 -3.06538 -2.29549 -2.39249 Cu
84 1 7.21121 3.63211 0.00929894 0 0 0 -2.54826 1.56953 0.564084 Cu
85 1 7.2181 5.42304 1.80986 0 0 0 2.05761 1.89855 0.662226 Cu
86 1 9.01956 3.60937 1.82159 0 0 0 -2.7563 -0.231557 1.42366 Cu
87 1 9.05804 5.4268 0.00471253 0 0 0 0.861606 -2.72693 1.38818 Cu
88 1 7.20073 3.63315 3.61153 0 0 0 0.805096 -0.22969 2.91441 Cu
89 1 7.21695 5.43543 5.43946 0 0 0 2.55642 0.540231 0.85283 Cu
90 1 9.03446 3.61602 5.40429 0 0 0 -0.620954 0.303416 0.886467 Cu
91 1 9.03145 5.40851 3.60715 0 0 0 0.502892 -1.44524 1.11164 Cu
92 1 7.21926 3.63417 7.23054 0 0 0 2.25835 -1.82818 -2.27665 Cu
93 1 7.23291 5.43314 9.03717 0 0 0 -1.65404 2.30854 1.9337 Cu
94 1 9.00975 3.62029 9.01948 0 0 0 -1.23864 -2.3185 2.24895 Cu
95 1 9.03822 5.44143 7.23422 0 0 0 -0.0660595 -2.19095 2.31094 Cu
96 1 7.22436 7.23828 0.011331 0 0 0 -0.888837 2.45672 -0.596045 Cu
97 1 7.20583 9.04026 1.8227 0 0 0 1.99885 -1.39533 1.4784 Cu
98 1 9.03619 7.24553 1.80609 0 0 0 0.437607 -2.45603 0.175171 Cu
99 1 9.02073 9.04533 0.0149663 0 0 0 2.00867 -1.11741 -0.461106 Cu
100 1 7.22941 7.21499 3.61766 0 0 0 -2.93145 2.4681 -0.524196 Cu
101 1 7.22073 9.03998 5.41394 0 0 0 -2.55744 -2.3854 2.45461 Cu
102 1 9.01772 7.23172 5.41696 0 0 0 2.38394 2.16519 -1.57699 Cu
103 1 9.02175 9.03811 3.64107 0 0 0 2.47979 -0.218299 1.89895 Cu
104 1 7.23549 7.2388 7.22135 0 0 0 -2.14823 -2.71877 -1.20789 Cu
105 1 7.22577 9.01011 9.02712 0 0 0 0.590999 -1.90122 -0.00383669 Cu
106 1 9.04686 7.23447 9.05587 0 0 0 2.20498 -1.62231 1.33439 Cu
107 1 9.03239 9.02682 7.21736 0 0 0 2.06667 -0.323771 -2.29719 Cu
