LAMMPS (23 Jun 2022 - Update 1)
# LAMMPS input file to run a MLMD simulation for MLACS
#####################################
#           General parameters
#####################################
units        metal
boundary     p p p
atom_style atomic
atom_modify  map array sort 0 0.0
neigh_modify every 2 delay 10 check yes page 1000000 one 100000

fix 1 all property/atom d_nx d_ny d_nz d_dnx d_dny d_dnz d_ddnx d_ddny d_ddnz
read_data    /Users/oliviernadeau/Software/otf_mlacs/examples/MolecularDynamics/Trajectory/atoms.in fix 1 NULL PafiPath
Reading data file ...
  orthogonal box = (0 0 0) to (10.83 10.83 10.83)
  1 by 1 by 1 MPI processor grid
  reading atoms ...
  107 atoms
  read_data CPU = 0.003 seconds
mass      1  63.546
#####################################



#####################################
#           Interactions
#####################################
pair_style     mliap  model linear /Users/oliviernadeau/Software/otf_mlacs/examples/MLIP.model  descriptor sna /Users/oliviernadeau/Software/otf_mlacs/examples/MLIP.descriptor
SNAP keyword rcutfac 4.2 
SNAP keyword twojmax 4 
SNAP keyword rfac0 0.99363 
SNAP keyword rmin0 0.0 
SNAP keyword chemflag 0 
SNAP keyword bnormflag 0 
SNAP keyword switchflag 1 
SNAP keyword bzeroflag 1 
SNAP keyword wselfallflag 0 
SNAP keyword nelems 1 
SNAP keyword elems       Cu 
SNAP keyword radelems    0.5 
SNAP keyword welems      1.0 
pair_coeff    * * Cu
#####################################



#####################################
# Compute relevant field for PAFI simulation
#####################################
timestep  0.001
thermo    1
min_style fire
compute   1 all property/atom d_nx d_ny d_nz d_dnx d_dny d_dnz d_ddnx d_ddny d_ddnz
run 0
WARNING: No fixes with time integration, atoms won't move (src/verlet.cpp:60)
Neighbor list info ...
  update every 2 steps, delay 10 steps, check yes
  max neighbors/atom: 100000, page size: 1000000
  master list distance cutoff = 6.2
  ghost atom cutoff = 6.2
  binsize = 3.1, bins = 4 4 4
  1 neighbor lists, perpetual/occasional/extra = 1 0 0
  (1) pair mliap, perpetual
      attributes: full, newton on
      pair build: full/bin/atomonly
      stencil: full/bin/3d
      bin: standard
Per MPI rank memory allocation (min/avg/max) = 12.27 | 12.27 | 12.27 Mbytes
   Step          Temp          E_pair         E_mol          TotEng         Press     
         0   0              0.78414705     0              0.78414705     16274.153    
Loop time of 3.75e-07 on 1 procs for 0 steps with 107 atoms

0.0% CPU use with 1 MPI tasks x no OpenMP threads

MPI task timing breakdown:
Section |  min time  |  avg time  |  max time  |%varavg| %total
---------------------------------------------------------------
Pair    | 0          | 0          | 0          |   0.0 |  0.00
Neigh   | 0          | 0          | 0          |   0.0 |  0.00
Comm    | 0          | 0          | 0          |   0.0 |  0.00
Output  | 0          | 0          | 0          |   0.0 |  0.00
Modify  | 0          | 0          | 0          |   0.0 |  0.00
Other   |            | 3.75e-07   |            |       |100.00

Nlocal:            107 ave         107 max         107 min
Histogram: 1 0 0 0 0 0 0 0 0 0
Nghost:            983 ave         983 max         983 min
Histogram: 1 0 0 0 0 0 0 0 0 0
Neighs:              0 ave           0 max           0 min
Histogram: 1 0 0 0 0 0 0 0 0 0
FullNghs:         8286 ave        8286 max        8286 min
Histogram: 1 0 0 0 0 0 0 0 0 0

Total # of neighbors = 8286
Ave neighs/atom = 77.439252
Neighbor list builds = 0
Dangerous builds = 0

# Set up PAFI Langevin/Brownian integration
fix       pafihp all pafi 1 10 $(10*dt) 94188 overdamped yes com yes
fix       pafihp all pafi 1 10 0.010000000000000000208 94188 overdamped yes com yes
fix pafi compute name,style: 1,property/atom

run 0

CITE-CITE-CITE-CITE-CITE-CITE-CITE-CITE-CITE-CITE-CITE-CITE-CITE

Your simulation uses code contributions which should be cited:

- citation for fix pafi:

@article{SwinburneMarinica2018,
author={T. D. Swinburne and M. C. Marinica},
title={Unsupervised calculation of free energy barriers in large crystalline systems},
journal={Physical Review Letters},
volume={120},
number={13},
pages={135503},
year={2018},
publisher={APS}
}
Recommended to be coupled with PAFI++ code:
https://github.com/tomswinburne/pafi
CITE-CITE-CITE-CITE-CITE-CITE-CITE-CITE-CITE-CITE-CITE-CITE-CITE

Per MPI rank memory allocation (min/avg/max) = 13.77 | 13.77 | 13.77 Mbytes
   Step          Temp          E_pair         E_mol          TotEng         Press     
         0   0              0.78414705     0              0.78414705     16274.153    
Loop time of 4.59e-07 on 1 procs for 0 steps with 107 atoms

217.9% CPU use with 1 MPI tasks x no OpenMP threads

MPI task timing breakdown:
Section |  min time  |  avg time  |  max time  |%varavg| %total
---------------------------------------------------------------
Pair    | 0          | 0          | 0          |   0.0 |  0.00
Neigh   | 0          | 0          | 0          |   0.0 |  0.00
Comm    | 0          | 0          | 0          |   0.0 |  0.00
Output  | 0          | 0          | 0          |   0.0 |  0.00
Modify  | 0          | 0          | 0          |   0.0 |  0.00
Other   |            | 4.59e-07   |            |       |100.00

Nlocal:            107 ave         107 max         107 min
Histogram: 1 0 0 0 0 0 0 0 0 0
Nghost:            983 ave         983 max         983 min
Histogram: 1 0 0 0 0 0 0 0 0 0
Neighs:              0 ave           0 max           0 min
Histogram: 1 0 0 0 0 0 0 0 0 0
FullNghs:         8286 ave        8286 max        8286 min
Histogram: 1 0 0 0 0 0 0 0 0 0

Total # of neighbors = 8286
Ave neighs/atom = 77.439252
Neighbor list builds = 0
Dangerous builds = 0

minimize 0 0 250 250
WARNING: Using 'neigh_modify every 1 delay 0 check yes' setting during minimization (src/min.cpp:187)
  Parameters for fire: 
    dmax delaystep dtgrow dtshrink alpha0 alphashrink tmax tmin    integrator halfstepback 
     0.1        20    1.1      0.5   0.25        0.99   10 0.02 eulerimplicit          yes 
Per MPI rank memory allocation (min/avg/max) = 13.77 | 13.77 | 13.77 Mbytes
   Step          Temp          E_pair         E_mol          TotEng         Press     
         0   0              0.78414705     0              0.78414705     16274.153    
         1   1.1854867e-12  0.78414705     0              0.78414705     16274.153    
         2   3.6251546e-12  0.78414705     0              0.78414705     16274.153    
         3   7.3804177e-12  0.78414705     0              0.78414705     16274.153    
         4   1.2431813e-11  0.78414705     0              0.78414705     16274.153    
         5   1.8753271e-11  0.78414705     0              0.78414705     16274.153    
         6   2.6312352e-11  0.78414705     0              0.78414705     16274.153    
         7   3.5070563e-11  0.78414705     0              0.78414705     16274.153    
         8   4.4983727e-11  0.78414705     0              0.78414705     16274.153    
         9   5.6002423e-11  0.78414705     0              0.78414705     16274.153    
        10   6.8072488e-11  0.78414705     0              0.78414705     16274.154    
        11   8.1135575e-11  0.78414705     0              0.78414705     16274.154    
        12   9.5129753e-11  0.78414705     0              0.78414705     16274.154    
        13   1.0999017e-10  0.78414705     0              0.78414705     16274.154    
        14   1.2564972e-10  0.78414705     0              0.78414705     16274.154    
        15   1.420398e-10   0.78414705     0              0.78414705     16274.154    
        16   1.5909101e-10  0.78414705     0              0.78414705     16274.154    
        17   1.7673398e-10  0.78414705     0              0.78414705     16274.154    
        18   1.9490009e-10  0.78414705     0              0.78414705     16274.154    
        19   2.1352229e-10  0.78414705     0              0.78414705     16274.154    
        20   2.325359e-10   0.78414705     0              0.78414705     16274.154    
        21   2.5187938e-10  0.78414705     0              0.78414705     16274.154    
        22   2.7352704e-10  0.78414705     0              0.78414705     16274.154    
        23   2.9778182e-10  0.78414705     0              0.78414705     16274.154    
        24   3.2488156e-10  0.78414705     0              0.78414705     16274.154    
        25   3.5505876e-10  0.78414705     0              0.78414705     16274.154    
        26   3.8853264e-10  0.78414705     0              0.78414705     16274.154    
        27   4.2550392e-10  0.78414705     0              0.78414705     16274.154    
        28   4.6615707e-10  0.78414705     0              0.78414705     16274.154    
        29   5.106776e-10   0.78414705     0              0.78414705     16274.154    
        30   5.5929168e-10  0.78414705     0              0.78414705     16274.154    
        31   6.1232872e-10  0.78414705     0              0.78414705     16274.154    
        32   6.7028599e-10  0.78414705     0              0.78414705     16274.154    
        33   7.3384011e-10  0.78414705     0              0.78414705     16274.154    
        34   8.0371909e-10  0.78414705     0              0.78414705     16274.154    
        35   8.8034681e-10  0.78414705     0              0.78414705     16274.154    
        36   9.6320181e-10  0.78414705     0              0.78414705     16274.154    
        37   1.0498876e-09  0.78414705     0              0.78414705     16274.154    
        38   1.1351457e-09  0.78414705     0              0.78414705     16274.154    
        39   1.2109516e-09  0.78414705     0              0.78414705     16274.154    
        40   1.2694591e-09  0.78414705     0              0.78414705     16274.155    
        41   1.304425e-09   0.78414705     0              0.78414705     16274.155    
        42   1.2898458e-09  0.78414705     0              0.78414705     16274.155    
        43   1.131947e-09   0.78414705     0              0.78414705     16274.155    
        44   5.5339807e-14  0.78414705     0              0.78414705     16274.155    
        45   1.6827575e-13  0.78414705     0              0.78414705     16274.155    
        46   3.3947386e-13  0.78414705     0              0.78414705     16274.155    
        47   5.6473588e-13  0.78414705     0              0.78414705     16274.155    
        48   8.3860458e-13  0.78414705     0              0.78414705     16274.155    
        49   1.15455e-12    0.78414705     0              0.78414705     16274.155    
        50   1.5051843e-12  0.78414705     0              0.78414705     16274.155    
        51   1.8824897e-12  0.78414705     0              0.78414705     16274.155    
        52   2.2780464e-12  0.78414705     0              0.78414705     16274.155    
        53   2.6832422e-12  0.78414705     0              0.78414705     16274.155    
        54   3.0894491e-12  0.78414705     0              0.78414705     16274.155    
        55   3.4881576e-12  0.78414705     0              0.78414705     16274.155    
        56   3.8710631e-12  0.78414705     0              0.78414705     16274.155    
        57   4.2301115e-12  0.78414705     0              0.78414705     16274.155    
        58   4.557507e-12   0.78414705     0              0.78414705     16274.155    
        59   4.8456551e-12  0.78414705     0              0.78414705     16274.155    
        60   5.0869105e-12  0.78414705     0              0.78414705     16274.155    
        61   5.2728148e-12  0.78414705     0              0.78414705     16274.155    
        62   5.3922873e-12  0.78414705     0              0.78414705     16274.155    
        63   5.4281602e-12  0.78414705     0              0.78414705     16274.155    
        64   5.3514468e-12  0.78414705     0              0.78414705     16274.155    
        65   5.1191758e-12  0.78414705     0              0.78414705     16274.155    
        66   4.5589876e-12  0.78414705     0              0.78414705     16274.155    
        67   3.283669e-12   0.78414705     0              0.78414705     16274.155    
        68   4.7989859e-17  0.78414705     0              0.78414705     16274.155    
        69   1.4658111e-16  0.78414705     0              0.78414705     16274.155    
        70   2.9786288e-16  0.78414705     0              0.78414705     16274.155    
        71   5.0043966e-16  0.78414705     0              0.78414705     16274.155    
        72   7.5244528e-16  0.78414705     0              0.78414705     16274.155    
        73   1.0515623e-15  0.78414705     0              0.78414705     16274.155    
        74   1.3950459e-15  0.78414705     0              0.78414705     16274.155    
        75   1.7797528e-15  0.78414705     0              0.78414705     16274.155    
        76   2.2021725e-15  0.78414705     0              0.78414705     16274.155    
        77   2.6584634e-15  0.78414705     0              0.78414705     16274.155    
        78   3.1444905e-15  0.78414705     0              0.78414705     16274.155    
        79   3.6558649e-15  0.78414705     0              0.78414705     16274.155    
        80   4.1879858e-15  0.78414705     0              0.78414705     16274.155    
        81   4.7360817e-15  0.78414705     0              0.78414705     16274.155    
        82   5.2952537e-15  0.78414705     0              0.78414705     16274.155    
        83   5.8605176e-15  0.78414705     0              0.78414705     16274.155    
        84   6.4268469e-15  0.78414705     0              0.78414705     16274.155    
        85   6.9892147e-15  0.78414705     0              0.78414705     16274.155    
        86   7.5426365e-15  0.78414705     0              0.78414705     16274.155    
        87   8.0822101e-15  0.78414705     0              0.78414705     16274.155    
        88   8.6031543e-15  0.78414705     0              0.78414705     16274.155    
        89   9.1517049e-15  0.78414705     0              0.78414705     16274.155    
        90   9.7208486e-15  0.78414705     0              0.78414705     16274.155    
        91   1.0296533e-14  0.78414705     0              0.78414705     16274.155    
        92   1.0857374e-14  0.78414705     0              0.78414705     16274.155    
        93   1.1371316e-14  0.78414705     0              0.78414705     16274.155    
        94   1.1787735e-14  0.78414705     0              0.78414705     16274.155    
        95   1.2003381e-14  0.78414705     0              0.78414705     16274.155    
        96   1.1535448e-14  0.78414705     0              0.78414705     16274.155    
        97   1.0444634e-19  0.78414705     0              0.78414705     16274.155    
        98   3.1895051e-19  0.78414705     0              0.78414705     16274.155    
        99   6.4788921e-19  0.78414705     0              0.78414705     16274.155    
       100   1.0879664e-18  0.78414705     0              0.78414705     16274.155    
       101   1.6347763e-18  0.78414705     0              0.78414705     16274.155    
       102   2.2828512e-18  0.78414705     0              0.78414705     16274.155    
       103   3.0257221e-18  0.78414705     0              0.78414705     16274.155    
       104   3.8559864e-18  0.78414705     0              0.78414705     16274.155    
       105   4.7653923e-18  0.78414705     0              0.78414705     16274.155    
       106   5.7449245e-18  0.78414705     0              0.78414705     16274.155    
       107   6.784904e-18   0.78414705     0              0.78414705     16274.155    
       108   7.8750916e-18  0.78414705     0              0.78414705     16274.155    
       109   9.0047966e-18  0.78414705     0              0.78414705     16274.155    
       110   1.0162987e-17  0.78414705     0              0.78414705     16274.155    
       111   1.1338408e-17  0.78414705     0              0.78414705     16274.155    
       112   1.2519693e-17  0.78414705     0              0.78414705     16274.155    
       113   1.3695468e-17  0.78414705     0              0.78414705     16274.155    
       114   1.4854466e-17  0.78414705     0              0.78414705     16274.155    
       115   1.5985622e-17  0.78414705     0              0.78414705     16274.155    
       116   1.7078155e-17  0.78414705     0              0.78414705     16274.155    
       117   1.812164e-17   0.78414705     0              0.78414705     16274.155    
       118   1.9207503e-17  0.78414705     0              0.78414705     16274.155    
       119   2.0316478e-17  0.78414705     0              0.78414705     16274.155    
       120   2.1413087e-17  0.78414705     0              0.78414705     16274.155    
       121   2.2443472e-17  0.78414705     0              0.78414705     16274.155    
       122   2.332349e-17   0.78414705     0              0.78414705     16274.155    
       123   2.3902171e-17  0.78414705     0              0.78414705     16274.155    
       124   2.3775993e-17  0.78414705     0              0.78414705     16274.155    
       125   1.41376e-17    0.78414705     0              0.78414705     16274.155    
       126   4.3481329e-22  0.78414705     0              0.78414705     16274.155    
       127   9.7390499e-22  0.78414705     0              0.78414705     16274.155    
       128   1.5107579e-21  0.78414705     0              0.78414705     16274.155    
       129   1.9786611e-21  0.78414705     0              0.78414705     16274.155    
       130   2.3563004e-21  0.78414705     0              0.78414705     16274.155    
       131   2.6442656e-21  0.78414705     0              0.78414705     16274.155    
       132   2.8524981e-21  0.78414705     0              0.78414705     16274.155    
       133   2.9940838e-21  0.78414705     0              0.78414705     16274.155    
       134   3.0819318e-21  0.78414705     0              0.78414705     16274.155    
       135   3.1276417e-21  0.78414705     0              0.78414705     16274.155    
       136   3.1409299e-21  0.78414705     0              0.78414705     16274.155    
       137   3.1297367e-21  0.78414705     0              0.78414705     16274.155    
       138   3.1003273e-21  0.78414705     0              0.78414705     16274.155    
       139   3.0575832e-21  0.78414705     0              0.78414705     16274.155    
       140   3.0053361e-21  0.78414705     0              0.78414705     16274.155    
       141   2.9464418e-21  0.78414705     0              0.78414705     16274.155    
       142   2.8830302e-21  0.78414705     0              0.78414705     16274.155    
       143   2.8168111e-21  0.78414705     0              0.78414705     16274.155    
       144   2.7490308e-21  0.78414705     0              0.78414705     16274.155    
       145   2.680547e-21   0.78414705     0              0.78414705     16274.155    
       146   2.6120294e-21  0.78414705     0              0.78414705     16274.155    
       147   2.6675844e-21  0.78414705     0              0.78414705     16274.155    
       148   2.8444911e-21  0.78414705     0              0.78414705     16274.155    
       149   3.1297919e-21  0.78414705     0              0.78414705     16274.155    
       150   3.5176542e-21  0.78414705     0              0.78414705     16274.155    
       151   4.0049296e-21  0.78414705     0              0.78414705     16274.155    
       152   4.5876812e-21  0.78414705     0              0.78414705     16274.155    
       153   5.2576431e-21  0.78414705     0              0.78414705     16274.155    
       154   5.9986338e-21  0.78414705     0              0.78414705     16274.155    
       155   6.7820603e-21  0.78414705     0              0.78414705     16274.155    
       156   7.5626716e-21  0.78414705     0              0.78414705     16274.155    
       157   8.2746737e-21  0.78414705     0              0.78414705     16274.155    
       158   8.8296668e-21  0.78414705     0              0.78414705     16274.155    
       159   8.8281164e-21  0.78414705     0              0.78414705     16274.155    
       160   8.278858e-21   0.78414705     0              0.78414705     16274.155    
       161   7.3650411e-21  0.78414705     0              0.78414705     16274.155    
       162   6.2598517e-21  0.78414705     0              0.78414705     16274.155    
       163   5.1059435e-21  0.78414705     0              0.78414705     16274.155    
       164   4.0082899e-21  0.78414705     0              0.78414705     16274.155    
       165   3.0344672e-21  0.78414705     0              0.78414705     16274.155    
       166   2.2193723e-21  0.78414705     0              0.78414705     16274.155    
       167   1.5720993e-21  0.78414705     0              0.78414705     16274.155    
       168   1.0837367e-21  0.78414705     0              0.78414705     16274.155    
       169   7.3398202e-22  0.78414705     0              0.78414705     16274.155    
       170   4.971481e-22   0.78414705     0              0.78414705     16274.155    
       171   3.464303e-22   0.78414705     0              0.78414705     16274.155    
       172   2.5711137e-22  0.78414705     0              0.78414705     16274.155    
       173   2.0819307e-22  0.78414705     0              0.78414705     16274.155    
       174   1.8314683e-22  0.78414705     0              0.78414705     16274.155    
       175   1.6994145e-22  0.78414705     0              0.78414705     16274.155    
       176   1.6067461e-22  0.78414705     0              0.78414705     16274.155    
       177   1.5077744e-22  0.78414705     0              0.78414705     16274.155    
       178   1.3828271e-22  0.78414705     0              0.78414705     16274.155    
       179   1.228707e-22   0.78414705     0              0.78414705     16274.155    
       180   1.0529807e-22  0.78414705     0              0.78414705     16274.155    
       181   8.6777285e-23  0.78414705     0              0.78414705     16274.155    
       182   6.8609414e-23  0.78414705     0              0.78414705     16274.155    
       183   5.1862773e-23  0.78414705     0              0.78414705     16274.155    
       184   3.7371271e-23  0.78414705     0              0.78414705     16274.155    
       185   1.0930748e-25  0.78414705     0              0.78414705     16274.155    
       186   2.4351904e-25  0.78414705     0              0.78414705     16274.155    
       187   3.7551949e-25  0.78414705     0              0.78414705     16274.155    
       188   4.8791357e-25  0.78414705     0              0.78414705     16274.155    
       189   5.7346538e-25  0.78414705     0              0.78414705     16274.155    
       190   6.3310085e-25  0.78414705     0              0.78414705     16274.155    
       191   6.6970394e-25  0.78414705     0              0.78414705     16274.155    
       192   6.8812844e-25  0.78414705     0              0.78414705     16274.155    
       193   6.944333e-25   0.78414705     0              0.78414705     16274.155    
       194   6.9193776e-25  0.78414705     0              0.78414705     16274.155    
       195   6.8341154e-25  0.78414705     0              0.78414705     16274.155    
       196   6.6948859e-25  0.78414705     0              0.78414705     16274.155    
       197   6.5310345e-25  0.78414705     0              0.78414705     16274.155    
       198   6.3497793e-25  0.78414705     0              0.78414705     16274.155    
       199   6.1660521e-25  0.78414705     0              0.78414705     16274.155    
       200   5.9818289e-25  0.78414705     0              0.78414705     16274.155    
       201   5.8061374e-25  0.78414705     0              0.78414705     16274.155    
       202   5.6282063e-25  0.78414705     0              0.78414705     16274.155    
       203   5.4564547e-25  0.78414705     0              0.78414705     16274.155    
       204   5.2995072e-25  0.78414705     0              0.78414705     16274.155    
       205   5.1619958e-25  0.78414705     0              0.78414705     16274.155    
       206   5.2613812e-25  0.78414705     0              0.78414705     16274.155    
       207   5.4998585e-25  0.78414705     0              0.78414705     16274.155    
       208   5.821965e-25   0.78414705     0              0.78414705     16274.155    
       209   6.1738503e-25  0.78414705     0              0.78414705     16274.155    
       210   6.5167383e-25  0.78414705     0              0.78414705     16274.155    
       211   6.7934512e-25  0.78414705     0              0.78414705     16274.155    
       212   7.0449499e-25  0.78414705     0              0.78414705     16274.155    
       213   6.9873956e-25  0.78414705     0              0.78414705     16274.155    
       214   6.6450337e-25  0.78414705     0              0.78414705     16274.155    
       215   6.1500025e-25  0.78414705     0              0.78414705     16274.155    
       216   5.5424349e-25  0.78414705     0              0.78414705     16274.155    
       217   4.905428e-25   0.78414705     0              0.78414705     16274.155    
       218   4.2819309e-25  0.78414705     0              0.78414705     16274.155    
       219   3.7134172e-25  0.78414705     0              0.78414705     16274.155    
       220   3.2267339e-25  0.78414705     0              0.78414705     16274.155    
       221   2.8216678e-25  0.78414705     0              0.78414705     16274.155    
       222   2.458713e-25   0.78414705     0              0.78414705     16274.155    
       223   2.1308543e-25  0.78414705     0              0.78414705     16274.155    
       224   1.8429404e-25  0.78414705     0              0.78414705     16274.155    
       225   1.6185392e-25  0.78414705     0              0.78414705     16274.155    
       226   1.414325e-25   0.78414705     0              0.78414705     16274.155    
       227   1.2583734e-25  0.78414705     0              0.78414705     16274.155    
       228   1.1211565e-25  0.78414705     0              0.78414705     16274.155    
       229   1.0137343e-25  0.78414705     0              0.78414705     16274.155    
       230   9.1087264e-26  0.78414705     0              0.78414705     16274.155    
       231   8.447923e-26   0.78414705     0              0.78414705     16274.155    
       232   7.9465895e-26  0.78414705     0              0.78414705     16274.155    
       233   7.7767405e-26  0.78414705     0              0.78414705     16274.155    
       234   7.4130271e-26  0.78414705     0              0.78414705     16274.155    
       235   6.939318e-26   0.78414705     0              0.78414705     16274.155    
       236   6.456917e-26   0.78414705     0              0.78414705     16274.155    
       237   6.1649283e-26  0.78414705     0              0.78414705     16274.155    
       238   5.9517559e-26  0.78414705     0              0.78414705     16274.155    
       239   5.9830419e-26  0.78414705     0              0.78414705     16274.155    
       240   5.8680158e-26  0.78414705     0              0.78414705     16274.155    
       241   5.8353387e-26  0.78414705     0              0.78414705     16274.155    
       242   5.6706577e-26  0.78414705     0              0.78414705     16274.155    
       243   5.737227e-26   0.78414705     0              0.78414705     16274.155    
       244   5.8218179e-26  0.78414705     0              0.78414705     16274.155    
       245   5.8488553e-26  0.78414705     0              0.78414705     16274.155    
       246   5.8155593e-26  0.78414705     0              0.78414705     16274.155    
       247   5.5752135e-26  0.78414705     0              0.78414705     16274.155    
       248   5.2675452e-26  0.78414705     0              0.78414705     16274.155    
       249   5.1071787e-26  0.78414705     0              0.78414705     16274.155    
       250   4.9576592e-26  0.78414705     0              0.78414705     16274.155    
Loop time of 0.612675 on 1 procs for 250 steps with 107 atoms

98.9% CPU use with 1 MPI tasks x no OpenMP threads

Minimization stats:
  Stopping criterion = max iterations
  Energy initial, next-to-last, final = 
     0.784147052133734  0.784147052107789  0.784147052107788
  Force two-norm initial, final = 1.4627228e-05 1.1599787e-12
  Force max component initial, final = 6.2032327e-06 7.5434635e-13
  Final line search alpha, max atom move = 0 0
  Iterations, force evaluations = 250 256

MPI task timing breakdown:
Section |  min time  |  avg time  |  max time  |%varavg| %total
---------------------------------------------------------------
Pair    | 0.60559    | 0.60559    | 0.60559    |   0.0 | 98.84
Neigh   | 0          | 0          | 0          |   0.0 |  0.00
Comm    | 0.0005623  | 0.0005623  | 0.0005623  |   0.0 |  0.09
Output  | 0.005426   | 0.005426   | 0.005426   |   0.0 |  0.89
Modify  | 0.00071105 | 0.00071105 | 0.00071105 |   0.0 |  0.12
Other   |            | 0.0003867  |            |       |  0.06

Nlocal:            107 ave         107 max         107 min
Histogram: 1 0 0 0 0 0 0 0 0 0
Nghost:            983 ave         983 max         983 min
Histogram: 1 0 0 0 0 0 0 0 0 0
Neighs:              0 ave           0 max           0 min
Histogram: 1 0 0 0 0 0 0 0 0 0
FullNghs:         8286 ave        8286 max        8286 min
Histogram: 1 0 0 0 0 0 0 0 0 0

Total # of neighbors = 8286
Ave neighs/atom = 77.439252
Neighbor list builds = 0
Dangerous builds = 0
reset_timestep  0
#####################################



#####################################
#          Logging
#####################################
variable    dU    equal f_pafihp[1]
variable    dUerr equal f_pafihp[2]
variable    psi   equal f_pafihp[3]
variable    err   equal f_pafihp[4]
compute     disp    all displace/atom
compute     maxdisp all reduce max c_disp[4]
variable    maxjump equal sqrt(c_maxdisp)
fix logpafi all print 1 "${dU}  ${dUerr} ${psi} ${err} ${maxjump}" file pafi.log.0 title "# dU/dxi  (dU/dxi)^2  psi  err  maxjump"

#####################################



#####################################
#         Dump last step
#####################################
dump last all custom 100 configurations.out  id type xu yu zu vx vy vz fx fy fz element
dump_modify last element Cu
dump_modify last delay 100
#####################################



run  100
9.13985913326651e-05  8.35370249759552e-09 0.999994793320584 2.81532867318066e-12 0
Per MPI rank memory allocation (min/avg/max) = 14.65 | 14.65 | 14.65 Mbytes
   Step          Temp          E_pair         E_mol          TotEng         Press     
         0   4.9576592e-26  0.78414705     0              0.78414705     16274.155    
0.000234352577205272  5.49211304427528e-08 1.00227355265455 2.8154153643579e-12 0.0656309860007491
         1   0              0.78733082     0              0.78733082     16269.917    
0.000929397057361317  8.63778890231876e-07 1.00115501343027 2.8154196164633e-12 0.084819007473329
         2   0              0.79067204     0              0.79067204     16261.158    
0.00110333913473012  1.21735724622701e-06 1.00298150235148 2.81541234553248e-12 0.0958763533833004
         3   0              0.7932581      0              0.7932581      16256.496    
0.00116710912299817  1.36214370498555e-06 1.01055055732524 2.81532898393794e-12 0.107956078818059
         4   0              0.79769068     0              0.79769068     16265.119    
0.00228587935673908  5.22524443356585e-06 1.00992748545961 2.8153115960456e-12 0.112898172217733
         5   0              0.80049436     0              0.80049436     16250.541    
0.00154941819145148  2.40069673200078e-06 1.0090874317078 2.81530292242822e-12 0.121203546301707
         6   0              0.8019527      0              0.8019527      16225.702    
0.00262697653193297  6.90100569932659e-06 1.00689990409366 2.81530010350257e-12 0.120187160454388
         7   0              0.8046705      0              0.8046705      16226.819    
0.00203204604498881  4.12921112895466e-06 1.00813672549224 2.81536068329896e-12 0.123552490850027
         8   0              0.808081       0              0.808081       16222.717    
0.00252541588172971  6.37772537569264e-06 1.00521538759543 2.81535917896845e-12 0.130079270711278
         9   0              0.80968238     0              0.80968238     16198.246    
0.00315126176568215  9.93045071585019e-06 1.00423499598991 2.81530919047203e-12 0.140413805569238
        10   0              0.81213146     0              0.81213146     16224.343    
0.00197035152262333  3.88228512270407e-06 1.00148348566387 2.81521874768206e-12 0.137046672404419
        11   0              0.81413278     0              0.81413278     16225.826    
0.00242739952442924  5.89226845119929e-06 1.00584984494038 2.815282349692e-12 0.140040622804236
        12   0              0.81439752     0              0.81439752     16234.843    
0.00215696128317711  4.65248197712506e-06 1.00269507734886 2.81532524344045e-12 0.14040374136437
        13   0              0.81667078     0              0.81667078     16281.048    
0.00259798076751392  6.7495040683722e-06 1.00690330398115 2.8153156889088e-12 0.143010678764889
        14   0              0.82139153     0              0.82139153     16276.267    
0.000811438066878817  6.58431736380031e-07 1.00724411288791 2.8153445930611e-12 0.138673575322126
        15   0              0.82354309     0              0.82354309     16277.211    
0.000298346296250127  8.90105124861687e-08 1.01075486526752 2.81533659029381e-12 0.145512804147371
        16   0              0.82404602     0              0.82404602     16269.947    
0.000508081863974546  2.58147180499849e-07 1.00840235562229 2.81535912475834e-12 0.14561479204127
        17   0              0.82520255     0              0.82520255     16276.334    
0.00110180499864184  1.21397425503214e-06 1.00924328793877 2.81538924016775e-12 0.140962696500667
        18   0              0.82754312     0              0.82754312     16271.269    
0.00112307753892702  1.26130315844237e-06 1.01394123728373 2.81532477926639e-12 0.139531707005217
        19   0              0.82947979     0              0.82947979     16260.802    
0.000245493856240962  6.02672334520583e-08 1.01660331446422 2.81531755915755e-12 0.145815693912609
        20   0              0.82947685     0              0.82947685     16258.236    
-0.00102808682299089  1.05696251560749e-06 1.01890364519725 2.81528684235475e-12 0.154826381166728
        21   0              0.83477311     0              0.83477311     16240.95     
0.000423778940756621  1.79588590628804e-07 1.01952963355073 2.81522298962306e-12 0.157284573031179
        22   0              0.83846363     0              0.83846363     16222.252    
0.00222921854025828  4.96941530023127e-06 1.01378212376777 2.81530142487397e-12 0.158458013144265
        23   0              0.84012488     0              0.84012488     16249.422    
0.00236626793724061  5.59922395081294e-06 1.01366466820421 2.81536604671158e-12 0.154762355431879
        24   0              0.84176152     0              0.84176152     16283.949    
0.0030706211499605  9.42871424658475e-06 1.01180892762667 2.81544227967684e-12 0.153560410974318
        25   0              0.84401648     0              0.84401648     16302.326    
0.00253407160135531  6.42151888079545e-06 1.00941018430206 2.81540983831496e-12 0.160515106088035
        26   0              0.84460486     0              0.84460486     16312.843    
0.00162380566235959  2.63674482911106e-06 1.01071066772234 2.81540407340872e-12 0.162612249597467
        27   0              0.84746214     0              0.84746214     16314.568    
0.00237754187495715  5.65270536717474e-06 1.01177891140186 2.81542558635151e-12 0.160750240576708
        28   0              0.85084286     0              0.85084286     16340.434    
0.00351459869515394  1.23524039879778e-05 1.0140131020184 2.81544331305703e-12 0.162912940109933
        29   0              0.84781321     0              0.84781321     16351.383    
0.00310432186696821  9.63681425373697e-06 1.00936990238529 2.81550127213348e-12 0.155765286459117
        30   0              0.8491216      0              0.8491216      16347.948    
0.0032445030716599  1.05268001820105e-05 1.01004677427416 2.81554492312939e-12 0.157125461137774
        31   0              0.85215149     0              0.85215149     16347.242    
0.00418375293743975  1.75037886415357e-05 1.00562842582427 2.81554157565518e-12 0.163327559187748
        32   0              0.85185088     0              0.85185088     16342.991    
0.00408346249219558  1.66746659251681e-05 1.00213631219174 2.81554664006517e-12 0.162222673929719
        33   0              0.85049086     0              0.85049086     16333.759    
0.00470647852473759  2.21509401038162e-05 1.00275159444761 2.81551021510734e-12 0.165442673077264
        34   0              0.85352709     0              0.85352709     16339.197    
0.00451494918135813  2.03847661102465e-05 1.00196000992842 2.81548784666127e-12 0.172441546591337
        35   0              0.85435445     0              0.85435445     16365.689    
0.00691140778008845  4.77675575026672e-05 1.00420489681069 2.81545996064258e-12 0.166549938635546
        36   0              0.8587512      0              0.8587512      16347.481    
0.00751787841787364  5.65184959059302e-05 1.00315545643197 2.81548295081083e-12 0.173637693541216
        37   0              0.85729788     0              0.85729788     16338.759    
0.00850674315256853  7.23646790637715e-05 0.99870361635672 2.81549729954896e-12 0.169636317089068
        38   0              0.85740492     0              0.85740492     16334.81     
0.0090228325721379  8.14115076248327e-05 1.00052808153595 2.81549717079995e-12 0.164074254452699
        39   0              0.86002469     0              0.86002469     16356.769    
0.010598494175619  0.000112328078790629 0.995916298742114 2.81544214849261e-12 0.162951780816421
        40   0              0.8596549      0              0.8596549      16361.544    
0.0109127343527055  0.000119087771052718 0.995788080758005 2.81531207546625e-12 0.17070315063116
        41   0              0.86059862     0              0.86059862     16361.84     
0.0112956575858648  0.000127591880297104 0.997621187753588 2.81537898937502e-12 0.17607084153929
        42   0              0.86387715     0              0.86387715     16363.113    
0.0106371294016964  0.000113148521908433 0.998088116755542 2.81533863333728e-12 0.178990144647388
        43   0              0.86619099     0              0.86619099     16369.309    
0.0110745280508888  0.000122645171549922 1.00082158379858 2.81533936517375e-12 0.184012818074976
        44   0              0.86762696     0              0.86762696     16378.331    
0.0106825585344892  0.000114117056842789 1.0009776088627 2.8153344998165e-12 0.182798646926741
        45   0              0.86645427     0              0.86645427     16360.925    
0.0106579672379242  0.000113592265644666 1.00050636162129 2.81539762409986e-12 0.188499892386991
        46   0              0.86931271     0              0.86931271     16379.833    
0.00977205875281264  9.54931322684222e-05 1.00197369774247 2.8153296717287e-12 0.181697282806788
        47   0              0.86779975     0              0.86779975     16355.641    
0.00911056238286858  8.30023469321401e-05 0.999740170185037 2.81531793524018e-12 0.184848240598763
        48   0              0.86843325     0              0.86843325     16383.376    
0.00857510583943396  7.35324401574943e-05 0.997155315831297 2.81528305442341e-12 0.182068300985289
        49   0              0.87376607     0              0.87376607     16406.175    
0.00818229813471598  6.69500027653766e-05 0.998926502929105 2.81528253265112e-12 0.178058223977767
        50   0              0.87497129     0              0.87497129     16384.667    
0.00622989715106378  3.88116185128326e-05 1.00784358974164 2.81530054734784e-12 0.175422014447508
        51   0              0.87213638     0              0.87213638     16343.588    
0.00546329068008723  2.9847545055128e-05 1.00684271235396 2.81530801140217e-12 0.171144540547037
        52   0              0.86840728     0              0.86840728     16343.393    
0.00646569295459636  4.1805185383117e-05 1.0001154618658 2.81529504840995e-12 0.167173648519917
        53   0              0.87165669     0              0.87165669     16334.477    
0.00724687599509309  5.25172116882565e-05 0.994732611650636 2.81530315959745e-12 0.175844284901166
        54   0              0.87333664     0              0.87333664     16339.315    
0.00751394018866301  5.64592971588051e-05 0.992287915875737 2.81530450129764e-12 0.168044849109906
        55   0              0.87697241     0              0.87697241     16335.453    
0.00712611908081431  5.07815731539458e-05 0.991685550112879 2.81526040815053e-12 0.164958019829951
        56   0              0.87387074     0              0.87387074     16336.557    
0.00703080624298647  4.94322364264175e-05 0.984785786131977 2.81523681320076e-12 0.168424962998855
        57   0              0.8762862      0              0.8762862      16329.094    
0.00836476358523609  6.99692698368918e-05 0.981336565390603 2.81527837880154e-12 0.166470942331619
        58   0              0.87930278     0              0.87930278     16345.44     
0.00921894242700262  8.4988899472389e-05 0.978618649877894 2.8152445449175e-12 0.170548927795429
        59   0              0.88165094     0              0.88165094     16350.89     
0.00945376318825147  8.93736384195386e-05 0.977607511439447 2.81519415662153e-12 0.174385315410919
        60   0              0.88129469     0              0.88129469     16340.729    
0.00982014314131882  9.6435211315991e-05 0.981560860184869 2.8152193914271e-12 0.175299130304305
        61   0              0.88242497     0              0.88242497     16333.4      
0.00862717541934614  7.44281557161702e-05 0.983500455177602 2.81527579704512e-12 0.171424923861126
        62   0              0.88298392     0              0.88298392     16334.792    
0.0108866369313591  0.000118518863675231 0.98246822192331 2.81528632142949e-12 0.176084596585225
        63   0              0.88455074     0              0.88455074     16323.365    
0.0113000700495687  0.00012769158312516 0.982873514995959 2.81526934604219e-12 0.170596851413688
        64   0              0.88842561     0              0.88842561     16320.153    
0.011957659700588  0.000142985625515067 0.984324998391514 2.81526129584106e-12 0.17105004043254
        65   0              0.88829123     0              0.88829123     16326.399    
0.0111478112553116  0.000124273695784051 0.98830384494241 2.81524818377104e-12 0.178694384621887
        66   0              0.88998868     0              0.88998868     16358.108    
0.0122982131772407  0.000151246047352856 0.993119416206412 2.81522513092235e-12 0.178744148233484
        67   0              0.89336722     0              0.89336722     16359.336    
0.0124981978724393  0.000156204950058647 0.993705844424661 2.81522020119059e-12 0.181383849879304
        68   0              0.89391023     0              0.89391023     16350.637    
0.0123381905462294  0.000152230945955064 0.992582837822607 2.81509937702287e-12 0.17779676104968
        69   0              0.89495104     0              0.89495104     16337.46     
0.012210661538457  0.000149100255206754 0.99521598474757 2.81513560292795e-12 0.182543556573172
        70   0              0.89549066     0              0.89549066     16332.558    
0.0123850627216164  0.000153389778618372 0.991304574805453 2.81510162674237e-12 0.179257833234064
        71   0              0.89434067     0              0.89434067     16371.196    
0.0115361957015771  0.000133083811265086 0.984661154416583 2.81501781113818e-12 0.176535269393628
        72   0              0.89197125     0              0.89197125     16363.393    
0.0110176813911594  0.000121389303237101 0.982147745208807 2.81499649301296e-12 0.17877891720607
        73   0              0.89539131     0              0.89539131     16387.128    
0.0108038806263398  0.000116723836588201 0.987266569980467 2.81497298615461e-12 0.181636157616247
        74   0              0.89725433     0              0.89725433     16361.281    
0.00963321813843101  9.27988917025962e-05 0.989902819952865 2.81488287540155e-12 0.180489094349434
        75   0              0.89783039     0              0.89783039     16338.219    
0.00813289138112589  6.61439222171917e-05 0.992884575489592 2.81478163124743e-12 0.185564953462164
        76   0              0.89750902     0              0.89750902     16339.939    
0.00713956191589768  5.09733443509366e-05 0.993023186079023 2.81470457835428e-12 0.185480243056914
        77   0              0.90007306     0              0.90007306     16347.25     
0.00836158399246963  6.99160868631243e-05 0.989002646448063 2.8146977478806e-12 0.188546392191295
        78   0              0.89556115     0              0.89556115     16333.154    
0.00907825848788568  8.24147771728683e-05 0.988843197830374 2.81463895701779e-12 0.185454851868838
        79   0              0.89516493     0              0.89516493     16348.879    
0.00948341987251226  8.99352524783605e-05 0.988187007851651 2.81463529783546e-12 0.181306014112803
        80   0              0.89647818     0              0.89647818     16362.735    
0.00862835732123962  7.44485500629893e-05 0.988203758416284 2.81463154378544e-12 0.177506724314546
        81   0              0.89257466     0              0.89257466     16375.581    
0.00821698139171341  6.75187831917644e-05 0.991038481525585 2.8146690029705e-12 0.181056537001111
        82   0              0.89169093     0              0.89169093     16365.041    
0.00860109760257992  7.3978879969106e-05 0.99069782987417 2.81464523183787e-12 0.177681229450535
        83   0              0.8924021      0              0.8924021      16370.16     
0.00858541624959067  7.37093721787356e-05 0.990974426887507 2.81460095573165e-12 0.175428592256363
        84   0              0.88933922     0              0.88933922     16375.023    
0.00797203523352445  6.35533457645552e-05 0.995718378823118 2.81460968355914e-12 0.178834404069335
        85   0              0.88740268     0              0.88740268     16373.687    
0.00734815662482208  5.39954057829166e-05 0.99029348184085 2.81475030458091e-12 0.18256009721257
        86   0              0.88691546     0              0.88691546     16374.315    
0.00922711987620635  8.51397412098823e-05 0.991543578445114 2.81466641443781e-12 0.176787021580162
        87   0              0.88392069     0              0.88392069     16375.331    
0.00911392651361129  8.30636564955069e-05 0.984580453696624 2.81456619349949e-12 0.179462293808861
        88   0              0.88123869     0              0.88123869     16358.603    
0.00925732976782935  8.56981544303395e-05 0.983998192506172 2.81458736254691e-12 0.175282095956849
        89   0              0.88063417     0              0.88063417     16341.796    
0.0088621938144592  7.85384792050389e-05 0.983035809143044 2.81464386303262e-12 0.182009436205991
        90   0              0.8808586      0              0.8808586      16366.493    
0.00799855231230727  6.3976839092716e-05 0.980342673240967 2.81464332093154e-12 0.189150185791328
        91   0              0.88288246     0              0.88288246     16378.831    
0.00735615524597095  5.41130200028259e-05 0.975779009233931 2.81467224202449e-12 0.194394671954825
        92   0              0.88675233     0              0.88675233     16408.7      
0.00703387237674152  4.94753606122874e-05 0.973597638371315 2.81471849679967e-12 0.196490883603244
        93   0              0.88516486     0              0.88516486     16395.548    
0.00566805231662066  3.21268170639488e-05 0.976865969622401 2.8147770030594e-12 0.195239157175546
        94   0              0.88665086     0              0.88665086     16381.52     
0.00645973623092336  4.17281921731039e-05 0.977035183540797 2.81473875782777e-12 0.190651091788784
        95   0              0.88616268     0              0.88616268     16377.762    
0.0061488266272854  3.7808068892414e-05 0.975355880612809 2.81473948966424e-12 0.188928056335775
        96   0              0.88659541     0              0.88659541     16357.61     
0.00598811467724046  3.58575173877826e-05 0.977344620959595 2.81481821629449e-12 0.179708447313193
        97   0              0.88691628     0              0.88691628     16348.711    
0.00570130892794573  3.25049234918737e-05 0.980791360304629 2.81485143353855e-12 0.179141050129468
        98   0              0.88885405     0              0.88885405     16351.291    
0.00602978757506399  3.63583382003961e-05 0.979886891400468 2.81487298205672e-12 0.182682325949715
        99   0              0.89150717     0              0.89150717     16344.051    
0.00552162281499344  3.04883185110561e-05 0.981708666398855 2.8148692280067e-12 0.189621132336471
       100   0              0.89642335     0              0.89642335     16349.285    
Loop time of 0.238463 on 1 procs for 100 steps with 107 atoms

Performance: 36.232 ns/day, 0.662 hours/ns, 419.352 timesteps/s
99.6% CPU use with 1 MPI tasks x no OpenMP threads

MPI task timing breakdown:
Section |  min time  |  avg time  |  max time  |%varavg| %total
---------------------------------------------------------------
Pair    | 0.23625    | 0.23625    | 0.23625    |   0.0 | 99.07
Neigh   | 0          | 0          | 0          |   0.0 |  0.00
Comm    | 0.00022867 | 0.00022867 | 0.00022867 |   0.0 |  0.10
Output  | 0.0003603  | 0.0003603  | 0.0003603  |   0.0 |  0.15
Modify  | 0.0015644  | 0.0015644  | 0.0015644  |   0.0 |  0.66
Other   |            | 5.745e-05  |            |       |  0.02

Nlocal:            107 ave         107 max         107 min
Histogram: 1 0 0 0 0 0 0 0 0 0
Nghost:            983 ave         983 max         983 min
Histogram: 1 0 0 0 0 0 0 0 0 0
Neighs:              0 ave           0 max           0 min
Histogram: 1 0 0 0 0 0 0 0 0 0
FullNghs:         8286 ave        8286 max        8286 min
Histogram: 1 0 0 0 0 0 0 0 0 0

Total # of neighbors = 8286
Ave neighs/atom = 77.439252
Neighbor list builds = 0
Dangerous builds = 0
Total wall time: 0:00:00
